% Model:              BeamAdsorber_3D+2D__20K_sensorVarCurr_150keV_Apiezon_f29-2.mph
% Version:            COMSOL 6.2.0.290
% Date:               Sep 29 2024, 18:11
% Table:              Table 3 - Global Evaluation 2
% Iop (A)                hKapton (m)              SensPos (m)              REBCO (K)                Sensor (K)
29                       1.3E-5                   -5.0E-4                  8.593540680460752        1.213068159968433
31                       1.3E-5                   -5.0E-4                  9.181411055827343        1.2973009916020892
