% Model:              BeamAdsorber_3D+2D__20K_sensorVarCurr_150keV_Apiezon_f29-2.mph
% Version:            COMSOL 6.2.0.290
% Date:               Sep 29 2024, 18:11
% Table:              Table 3 - Global Evaluation 2
% Iop (A)                hKapton (m)              SensPos (m)              REBCO (K)                Sensor (K)
29                       1.3E-5                   5.0E-4                   8.607120788785675        0.8724213172044308
31                       1.3E-5                   5.0E-4                   9.195910500280007        0.9330134261075429
