% Model:              BeamAdsorber_3D+2D__20K_sensorVarCurr_150keV_Apiezon_f29-2.mph
% Version:            COMSOL 6.2.0.290
% Date:               Oct 2 2024, 09:37
% Table:              Table 3 - Global Evaluation 2
% Iop (A)                hKapton (m)              SensPos (m)              REBCO (K)                Sensor (K)
29                       1.4999999999999999E-5    -5.0E-4                  9.419868674623189        0.15117107950615924
30.5                     1.4999999999999999E-5    -5.0E-4                  9.903146706552707        0.15905158965716062
