% Model:              BeamAdsorber_3D+2D__20K_sensorVarCurr_150keV_Apiezon_f29-2.mph
% Version:            COMSOL 6.2.0.290
% Date:               Oct 2 2024, 09:37
% Table:              Table 3 - Global Evaluation 2
% Iop (A)                hKapton (m)              SensPos (m)              REBCO (K)                Sensor (K)
29                       1.8999999999999998E-5    0                        10.945406479894906       0.18617293406279884
30.5                     1.8999999999999998E-5    0                        11.507883965242272       0.19588911505377382
