% Model:              BeamAdsorber_3D+2D__20K_sensorVarCurr_150keV_Apiezon_f29-2.mph
% Version:            COMSOL 6.2.0.290
% Date:               Sep 29 2024, 18:13
% Table:              Table 3 - Global Evaluation 2
% Iop (A)                hKapton (m)              SensPos (m)              REBCO (K)                Sensor (K)
29                       1.7E-5                   -5.0E-4                  10.195748428237074       1.8202173171017684
31                       1.7E-5                   -5.0E-4                  10.893976253146583       1.9468269480844143
