% Model:              BeamAdsorber_3D+2D__20K_sensorVarCurr_150keV_Apiezon_f29-2.mph
% Version:            COMSOL 6.2.0.290
% Date:               Sep 29 2024, 18:13
% Table:              Table 3 - Global Evaluation 2
% Iop (A)                hKapton (m)              SensPos (m)              REBCO (K)                Sensor (K)
29                       2.2E-5                   -5.0E-4                  11.968700117529817       2.617434383985845
31                       2.2E-5                   -5.0E-4                  12.78759359171567        2.7995819625070553
