% Model:              BeamAdsorber_3D+2D__20K_sensorVarCurr_150keV_Apiezon_f29-2.mph
% Version:            COMSOL 6.2.0.290
% Date:               Oct 2 2024, 09:37
% Table:              Table 3 - Global Evaluation 2
% Iop (A)                hKapton (m)              SensPos (m)              REBCO (K)                Sensor (K)
29                       1.4999999999999999E-5    0                        9.429975380942746        0.1295906289106199
30.5                     1.4999999999999999E-5    0                        9.913787763450195        0.1363471162141252
