% Model:              BeamAdsorber_3D+2D__20K_sensorVarCurr_150keV_Apiezon_f29-2.mph
% Version:            COMSOL 6.2.0.290
% Date:               Oct 2 2024, 09:37
% Table:              Table 3 - Global Evaluation 2
% Iop (A)                hKapton (m)              SensPos (m)              REBCO (K)                Sensor (K)
29                       1.8999999999999998E-5    5.0E-4                   10.9564496095124         0.1623069754325801
30.5                     1.8999999999999998E-5    5.0E-4                   11.519501502090765       0.17077932331931152
