% Model:              BeamAdsorber_3D+2D__20K_sensorVarCurr_150keV_Apiezon_f29-2.mph
% Version:            COMSOL 6.2.0.290
% Date:               Sep 29 2024, 18:13
% Table:              Table 3 - Global Evaluation 2
% Iop (A)                hKapton (m)              SensPos (m)              REBCO (K)                Sensor (K)
29                       1.7E-5                   5.0E-4                   10.217309162078713       1.362306051431709
31                       1.7E-5                   5.0E-4                   10.917050819446725       1.4570989215374084
