% Model:              BeamAdsorber_3D+2D__20K_sensorVarCurr_150keV_Apiezon_f37_1.mph
% Version:            COMSOL 6.2.0.290
% Date:               Sep 29 2024, 17:45
% Table:              Table 3 - Global Evaluation 2
% Iop (A)                hKapton (m)              SensPos (m)              REBCO (K)                Sensor (K)
43                       4.9999999999999996E-6    5.0E-4                   4.1768449913209835       0.1279426119238991
52                       4.9999999999999996E-6    5.0E-4                   5.046946317633402        0.15484892005113338
