% Model:              BeamAdsorber_3D+2D__20K_sensorVarCurr_150keV_Apiezon_f37_1.mph
% Version:            COMSOL 6.2.0.290
% Date:               Sep 29 2024, 17:45
% Table:              Table 3 - Global Evaluation 2
% Iop (A)                hKapton (m)              SensPos (m)              REBCO (K)                Sensor (K)
43                       4.9999999999999996E-6    0                        4.176396542895013        0.16314209321421558
52                       4.9999999999999996E-6    0                        5.046403844091678        0.1974478145168561
