% Model:              BeamAdsorber_3D+2D__20K_sensorVarCurr_150keV_Apiezon_f37_1.mph
% Version:            COMSOL 6.2.0.290
% Date:               Sep 29 2024, 17:45
% Table:              Table 3 - Global Evaluation 2
% Iop (A)                hKapton (m)              SensPos (m)              REBCO (K)                Sensor (K)
43                       1.4999999999999999E-5    -5.0E-4                  8.755216775015985        1.4035961791439284
52                       1.4999999999999999E-5    -5.0E-4                  10.57385232378762        1.699772004834724
