% Model:              BeamAdsorber_3D+2D__20K_sensorVarCurr_150keV_Apiezon_f37_1.mph
% Version:            COMSOL 6.2.0.290
% Date:               Sep 29 2024, 17:46
% Table:              Table 3 - Global Evaluation 2
% Iop (A)                hKapton (m)              SensPos (m)              REBCO (K)                Sensor (K)
43                       1.4999999999999999E-5    5.0E-4                   8.771440242682633        1.0316596723525926
52                       1.4999999999999999E-5    5.0E-4                   10.59357610198035        1.2494001300207493
