% Model:              BeamAdsorber_3D+2D__20K_sensorVarCurr_150keV_Apiezon_f37_1.mph
% Version:            COMSOL 6.2.0.290
% Date:               Sep 29 2024, 17:45
% Table:              Table 3 - Global Evaluation 2
% Iop (A)                hKapton (m)              SensPos (m)              REBCO (K)                Sensor (K)
43                       9.999999999999999E-6     -5.0E-4                  6.725020800051908        0.7358609999000798
52                       9.999999999999999E-6     -5.0E-4                  8.125673530415519        0.8908395444874166
