% Model:              BeamAdsorber_3D+2D__20K_sensorVarCurr_150keV_Apiezon_f37_1.mph
% Version:            COMSOL 6.2.0.290
% Date:               Sep 29 2024, 17:45
% Table:              Table 3 - Global Evaluation 2
% Iop (A)                hKapton (m)              SensPos (m)              REBCO (K)                Sensor (K)
43                       9.999999999999999E-6     0                        6.729446446649703        0.6105161976904583
52                       9.999999999999999E-6     0                        8.131025557997287        0.73917525186096
