% Model:              BeamAdsorber_3D+2D__20K_sensorVarCurr_150keV_Apiezon_f37_1.mph
% Version:            COMSOL 6.2.0.290
% Date:               Sep 29 2024, 17:45
% Table:              Table 3 - Global Evaluation 2
% Iop (A)                hKapton (m)              SensPos (m)              REBCO (K)                Sensor (K)
43                       9.999999999999999E-6     5.0E-4                   6.73247262592988         0.5068169437778742
52                       9.999999999999999E-6     5.0E-4                   8.134686352710137        0.6136762710329222
