% Model:              BeamAdsorber_3D+2D__20K_sensorVarCurr_150keV_Apiezon_f34.mph
% Version:            COMSOL 6.2.0.290
% Date:               Sep 29 2024, 13:48
% Table:              Table 6 - Global Evaluation 2
% Iop (A)                hKapton (m)              SensPos (m)              REBCO (K)                Sensor (K)
38                       2.7E-5                   0                        11.165138091863103       2.5062873767796745
41                       2.7E-5                   0                        12.040283869672358       2.705845243355345
43                       2.7E-5                   0                        12.622944856335387       2.8390032297909435
45                       2.7E-5                   0                        13.205030423857842       2.9722618529420615
