% Model:              BeamAdsorber_3D+2D__20K_sensorVarCurr_150keV_Apiezon_f34.mph
% Version:            COMSOL 6.2.0.290
% Date:               Sep 29 2024, 13:49
% Table:              Table 6 - Global Evaluation 2
% Iop (A)                hKapton (m)              SensPos (m)              REBCO (K)                Sensor (K)
38                       2.9E-5                   0                        11.656937310888772       2.756488308877767
41                       2.9E-5                   0                        12.569998026554345       2.9759803125094315
43                       2.9E-5                   0                        13.177902676134863       3.1224477216280917
45                       2.9E-5                   0                        13.78533694410671        3.2690298107888793
