% Model:              BeamAdsorber_3D+2D__20K_sensorVarCurr_150keV_Apiezon_f34.mph
% Version:            COMSOL 6.2.0.290
% Date:               Sep 29 2024, 13:50
% Table:              Table 6 - Global Evaluation 2
% Iop (A)                hKapton (m)              SensPos (m)              REBCO (K)                Sensor (K)
38                       3.1E-5                   0                        12.132440479141067       3.0075080662349833
41                       3.1E-5                   0                        13.08216035834861        3.2470041998523413
43                       3.1E-5                   0                        13.714560358151445       3.406826393774697
45                       3.1E-5                   0                        14.346838000180078       3.566742465952821
