% Model:              BeamAdsorber_3D+2D__20K_sensorVarCurr_150keV_Apiezon_f34.mph
% Version:            COMSOL 6.2.0.290
% Date:               Sep 29 2024, 13:49
% Table:              Table 6 - Global Evaluation 2
% Iop (A)                hKapton (m)              SensPos (m)              REBCO (K)                Sensor (K)
38                       2.9E-5                   5.0E-4                   11.673071422803027       2.46613627945084
41                       2.9E-5                   5.0E-4                   12.58739019662434        2.662590546259178
43                       2.9E-5                   5.0E-4                   13.196132947577972       2.7936957926233674
45                       2.9E-5                   5.0E-4                   13.804416755098238       2.92491253155724
