% Model:              BeamAdsorber_3D+2D__20K_sensorVarCurr_150keV_Apiezon_f34.mph
% Version:            COMSOL 6.2.0.290
% Date:               Sep 29 2024, 13:48
% Table:              Table 6 - Global Evaluation 2
% Iop (A)                hKapton (m)              SensPos (m)              REBCO (K)                Sensor (K)
38                       2.7E-5                   -5.0E-4                  11.146487828305993       2.8128343864114953
41                       2.7E-5                   -5.0E-4                  12.020176043399069       3.036698644544124
43                       2.7E-5                   -5.0E-4                  12.601870079721294       3.186062217281716
45                       2.7E-5                   -5.0E-4                  13.182986458522848       3.335533698610469
