% Model:              BeamAdsorber_3D+2D__20K_sensorVarCurr_150keV_Apiezon_f34.mph
% Version:            COMSOL 6.2.0.290
% Date:               Sep 29 2024, 17:21
% Table:              Table 6 - Global Evaluation 2
% Iop (A)                hKapton (m)              SensPos (m)              REBCO (K)                Sensor (K)
237                      3.7999999999999995E-5    0                        19.917453420364197       5.690895862448144
240                      3.7999999999999995E-5    0                        20.166991174591345       5.7634082284864725
242                      3.7999999999999995E-5    0                        20.333343376682265       5.811753044955648
