% Model:              BeamAdsorber_3D+2D__20K_sensorVarCurr_150keV_Apiezon_f34.mph
% Version:            COMSOL 6.2.0.290
% Date:               Sep 29 2024, 17:21
% Table:              Table 6 - Global Evaluation 2
% Iop (A)                hKapton (m)              SensPos (m)              REBCO (K)                Sensor (K)
237                      3.7999999999999995E-5    -5.0E-4                  19.879593765963293       6.266989956222847
240                      3.7999999999999995E-5    -5.0E-4                  20.128648303284045       6.346770860099106
242                      3.7999999999999995E-5    -5.0E-4                  20.29467717627464        6.399968282756227
