% Model:              BeamAdsorber_3D+2D__20K_sensorVarCurr_150keV_Apiezon_f34.mph
% Version:            COMSOL 6.2.0.290
% Date:               Sep 29 2024, 17:20
% Table:              Table 6 - Global Evaluation 2
% Iop (A)                hKapton (m)              SensPos (m)              REBCO (K)                Sensor (K)
237                      3.5E-5                   -5.0E-4                  18.940920499899093       5.685084036437296
240                      3.5E-5                   -5.0E-4                  19.17814779263223        5.75747685539579
242                      3.5E-5                   -5.0E-4                  19.33629550333096        5.80574291196978
