% Model:              BeamAdsorber_3D+2D__20K_sensorVarCurr_150keV_Apiezon_f34.mph
% Version:            COMSOL 6.2.0.290
% Date:               Sep 29 2024, 17:21
% Table:              Table 6 - Global Evaluation 2
% Iop (A)                hKapton (m)              SensPos (m)              REBCO (K)                Sensor (K)
237                      3.5E-5                   5.0E-4                   19.004875520561605       4.6483990074984085
240                      3.5E-5                   5.0E-4                   19.242907113020017       4.707755694972263
242                      3.5E-5                   5.0E-4                   19.40159289269763        4.747331899884806
