% Model:              BeamAdsorber_3D+2D__20K_sensorVarCurr_150keV_Apiezon_f34.mph
% Version:            COMSOL 6.2.0.290
% Date:               Sep 29 2024, 17:20
% Table:              Table 6 - Global Evaluation 2
% Iop (A)                hKapton (m)              SensPos (m)              REBCO (K)                Sensor (K)
237                      3.5E-5                   0                        18.9760943140043         5.140841574049496
240                      3.5E-5                   0                        19.21376215536621        5.20639913111215
242                      3.5E-5                   0                        19.372206866467337       5.250107112847882
