% Model:              BeamAdsorber_3D+2D__20K_sensorVarCurr_150keV_Apiezon_f34.mph
% Version:            COMSOL 6.2.0.290
% Date:               Sep 29 2024, 17:22
% Table:              Table 6 - Global Evaluation 2
% Iop (A)                hKapton (m)              SensPos (m)              REBCO (K)                Sensor (K)
237                      4.1E-5                   5.0E-4                   20.857454038166367       5.686633844612491
240                      4.1E-5                   5.0E-4                   21.11882565453312        5.7591314624992975
242                      4.1E-5                   5.0E-4                   21.293064406088178       5.807464518835619
