% Model:              BeamAdsorber_3D+2D__20K_sensorVarCurr_150keV_Apiezon_f20.mph
% Version:            COMSOL 6.2.0.290
% Date:               Aug 9 2024, 12:06
% Table:              Table 3 - Global Evaluation 2
% Iop (A)                hKapton (m)              SensPos (m)              REBCO (K)                Sensor (K)
30                       2.2E-5                   0                        7.765180801306361        1.921890413977028
42                       2.2E-5                   0                        10.846518820339032       2.6963424345807816
44                       2.2E-5                   0                        11.359568391959836       2.825754478306024
