% Model:              BeamAdsorber_3D+2D__20K_sensorVarCurr_150keV_Apiezon_f20.mph
% Version:            COMSOL 6.2.0.290
% Date:               Aug 9 2024, 12:05
% Table:              Table 3 - Global Evaluation 2
% Iop (A)                hKapton (m)              SensPos (m)              REBCO (K)                Sensor (K)
30                       1.9999999999999998E-5    0                        7.321314320592371        1.6960276953610673
42                       1.9999999999999998E-5    0                        10.228083595376273       2.379217363044905
44                       1.9999999999999998E-5    0                        10.711628585428628       2.4934035264402787
