% Model:              BeamAdsorber_3D+2D__20K_sensorVarCurr_150keV_Apiezon_f20.mph
% Version:            COMSOL 6.2.0.290
% Date:               Aug 9 2024, 12:05
% Table:              Table 3 - Global Evaluation 2
% Iop (A)                hKapton (m)              SensPos (m)              REBCO (K)                Sensor (K)
30                       2.2E-5                   5.0E-4                   7.780060655125556        1.691210696946463
42                       2.2E-5                   5.0E-4                   10.86731272278147        2.372939947032549
44                       2.2E-5                   5.0E-4                   11.381366158545283       2.4868796667507027
