% Model:              BeamAdsorber_3D+2D__20K_sensorVarCurr_150keV_Apiezon_f33.mph
% Version:            COMSOL 6.2.0.290
% Date:               Sep 29 2024, 19:19
% Table:              Table 6 - Global Evaluation 2
% Iop (A)                hKapton (m)              SensPos (m)              REBCO (K)                Sensor (K)
96                       1.8E-6                   0                        1.01915748660414         0.014236785878505742
241                      1.8E-6                   0                        2.5565370054913927       0.03577343749111961
