% Model:              BeamAdsorber_3D+2D__20K_sensorVarCurr_150keV_Apiezon_f33.mph
% Version:            COMSOL 6.2.0.290
% Date:               Sep 29 2024, 19:18
% Table:              Table 6 - Global Evaluation 2
% Iop (A)                hKapton (m)              SensPos (m)              REBCO (K)                Sensor (K)
96                       8.0E-7                   5.0E-4                   0.5371769348879027       0.008590089162449743
241                      8.0E-7                   5.0E-4                   1.3463384559162854       0.02156541138424828
