% Model:              BeamAdsorber_3D+2D__20K_sensorVarCurr_150keV_Apiezon_f33.mph
% Version:            COMSOL 6.2.0.290
% Date:               Sep 29 2024, 19:19
% Table:              Table 6 - Global Evaluation 2
% Iop (A)                hKapton (m)              SensPos (m)              REBCO (K)                Sensor (K)
96                       1.8E-6                   5.0E-4                   1.0191614531654274       0.011920778234372875
241                      1.8E-6                   5.0E-4                   2.5565470115245965       0.029947893912616763
