% Model:              BeamAdsorber_3D+2D__20K_sensorVarCurr_150keV_Apiezon_f33.mph
% Version:            COMSOL 6.2.0.290
% Date:               Sep 29 2024, 19:18
% Table:              Table 6 - Global Evaluation 2
% Iop (A)                hKapton (m)              SensPos (m)              REBCO (K)                Sensor (K)
96                       1.3E-6                   5.0E-4                   0.7900464011279134       0.00961732904944057
241                      1.3E-6                   5.0E-4                   1.9813240154096157       0.024149380575714474
