% Model:              BeamAdsorber_3D+2D__20K_sensorVarCurr_2400keV_Apiezon_f20.mph
% Version:            COMSOL 6.2.0.290
% Date:               May 22 2024, 17:00
% Table:              Table 3 - Global Evaluation 2
% Iop (A)                hKapton (m)              SensPos (m)              REBCO (K)                Sensor (K)
15.5                     1.1E-5                   -5.0E-4                  7.906855096873819        2.8393795391473127
17                       1.1E-5                   -5.0E-4                  8.667487570181532        3.115384649572995
