% Model:              BeamAdsorber_3D+2D__20K_sensorVarCurr_800keV_Apiezon_f20.mph
% Version:            COMSOL 6.2.0.290
% Date:               May 22 2024, 16:57
% Table:              Table 3 - Global Evaluation 2
% Iop (A)                hKapton (m)              SensPos (m)              REBCO (K)                Sensor (K)
44.5                     1.1E-5                   0                        7.31861159843147         2.1849036219071856
