% Model:              BeamAdsorber_3D+2D__20K_sensorVarCurr_150keV_Apiezon_f33.mph
% Version:            COMSOL 6.2.0.290
% Date:               Sep 29 2024, 19:23
% Table:              Table 6 - Global Evaluation 2
% Iop (A)                hKapton (m)              SensPos (m)              REBCO (K)                Sensor (K)
36.3                     8.0E-7                   -5.0E-4                  0.8662726347633445       0.016101628791275857
45.2                     8.0E-7                   -5.0E-4                  1.0781770526037846       0.02004982456233151
