% Model:              BeamAdsorber_3D+2D__20K_sensorVarCurr_150keV_Apiezon_f33.mph
% Version:            COMSOL 6.2.0.290
% Date:               Sep 29 2024, 19:24
% Table:              Table 6 - Global Evaluation 2
% Iop (A)                hKapton (m)              SensPos (m)              REBCO (K)                Sensor (K)
36.3                     8.0E-7                   0                        0.8662733176441542       0.014814985140834125
45.2                     8.0E-7                   0                        1.078177904464134        0.018447552331902983
