% Model:              BeamAdsorber_3D+2D__20K_sensorVarCurr_150keV_Apiezon_f33.mph
% Version:            COMSOL 6.2.0.290
% Date:               Sep 29 2024, 19:25
% Table:              Table 6 - Global Evaluation 2
% Iop (A)                hKapton (m)              SensPos (m)              REBCO (K)                Sensor (K)
36.3                     1.8E-6                   -5.0E-4                  1.6449046610686686       0.028549090687459255
45.2                     1.8E-6                   -5.0E-4                  2.0478629005688305       0.03555901471884226
