% Model:              BeamAdsorber_3D+2D__20K_sensorVarCurr_150keV_Apiezon_f37_2.mph
% Version:            COMSOL 6.2.0.290
% Date:               Sep 30 2024, 22:40
% Table:              Table 3 - Global Evaluation 2
% Iop (A)                hKapton (m)              SensPos (m)              REBCO (K)                Sensor (K)
3.5                      4.9999999999999996E-6    5.0E-4                   1.0620789591761266       0.03241476339037064
88.5                     4.9999999999999996E-6    5.0E-4                   26.526085449411006       0.08384535313993631
