% Model:              BeamAdsorber_3D+2D__20K_sensorVarCurr_150keV_Apiezon_f37_2.mph
% Version:            COMSOL 6.2.0.290
% Date:               Sep 30 2024, 22:39
% Table:              Table 3 - Global Evaluation 2
% Iop (A)                hKapton (m)              SensPos (m)              REBCO (K)                Sensor (K)
3.5                      4.9999999999999996E-6    -5.0E-4                  1.061771674377944        0.052964023200903654
88.5                     4.9999999999999996E-6    -5.0E-4                  26.51807888884425        0.13687536058264484
