% Model:              BeamAdsorber_3D+2D__20K_sensorVarCurr_150keV_Apiezon_f37_2.mph
% Version:            COMSOL 6.2.0.290
% Date:               Sep 30 2024, 22:41
% Table:              Table 3 - Global Evaluation 2
% Iop (A)                hKapton (m)              SensPos (m)              REBCO (K)                Sensor (K)
3.5                      7.0E-6                   0                        1.3459902381898345       0.08011012228163139
88.5                     7.0E-6                   0                        33.54598263117211        0.20801161109487794
