% Model:              BeamAdsorber_3D+2D__20K_sensorVarCurr_150keV_Apiezon_f37_2.mph
% Version:            COMSOL 6.2.0.290
% Date:               Sep 30 2024, 22:40
% Table:              Table 3 - Global Evaluation 2
% Iop (A)                hKapton (m)              SensPos (m)              REBCO (K)                Sensor (K)
3.5                      4.9999999999999996E-6    0                        1.0619654534394023       0.04132943945776191
88.5                     4.9999999999999996E-6    0                        26.523123514866874       0.10686588326358866
