% Model:              BeamAdsorber_3D+2D__20K_sensorVarCurr_150keV_Apiezon_f37_2.mph
% Version:            COMSOL 6.2.0.290
% Date:               Sep 30 2024, 22:41
% Table:              Table 3 - Global Evaluation 2
% Iop (A)                hKapton (m)              SensPos (m)              REBCO (K)                Sensor (K)
3.5                      7.0E-6                   5.0E-4                   1.34630322263925         0.06448180565159234
88.5                     7.0E-6                   5.0E-4                   33.55416245336236        0.16754610316748568
