% Model:              BeamAdsorber_3D+2D__20K_sensorVarCurr_150keV_Apiezon_f20.mph
% Version:            COMSOL 6.2.0.290
% Date:               Sep 29 2024, 11:56
% Table:              Table 6 - Global Evaluation 2
% Iop (A)                hKapton (m)              SensPos (m)              REBCO (K)                Sensor (K)
200                      1.1E-5                   -5.0E-4                  7.587550696645646        3.2660963953102673
217.5                    1.1E-5                   -5.0E-4                  8.24811086311886         3.5528201294789987
235                      1.1E-5                   -5.0E-4                  8.906914713167115        3.8395411691236596
252.5                    1.1E-5                   -5.0E-4                  9.56635495706081         4.126218052160059
270                      1.1E-5                   -5.0E-4                  10.224431831747097       4.412968908780453
