% Model:              BeamAdsorber_3D+2D__20K_sensorVarCurr_150keV_Apiezon_f20.mph
% Version:            COMSOL 6.2.0.290
% Date:               Sep 29 2024, 11:57
% Table:              Table 6 - Global Evaluation 2
% Iop (A)                hKapton (m)              SensPos (m)              REBCO (K)                Sensor (K)
200                      1.1E-5                   0                        7.6520566305451005       2.7452190531124785
217.5                    1.1E-5                   0                        8.318089781013022        2.9864478137839647
235                      1.1E-5                   0                        8.982267864143566        3.2278353414470224
252.5                    1.1E-5                   0                        9.647202554039001        3.469374433806859
270                      1.1E-5                   0                        10.310875857634471       3.7110739937715103
