% Model:              BeamAdsorber_3D+2D__20K_sensorVarCurr_150keV_Apiezon_f20.mph
% Version:            COMSOL 6.2.0.290
% Date:               Sep 29 2024, 11:58
% Table:              Table 6 - Global Evaluation 2
% Iop (A)                hKapton (m)              SensPos (m)              REBCO (K)                Sensor (K)
200                      1.1E-5                   5.0E-4                   7.699794554931508        2.299665729705545
217.5                    1.1E-5                   5.0E-4                   8.36990014237293         2.5018753830987563
235                      1.1E-5                   5.0E-4                   9.03812066210515         2.7042462799241385
252.5                    1.1E-5                   5.0E-4                   9.707204116992052        2.906801232684341
270                      1.1E-5                   5.0E-4                   10.375046124652606       3.109589596997239
