% Model:              BeamAdsorber_3D+2D__20K_sensorVarCurr_150keV_Apiezon_f20.mph
% Version:            COMSOL 6.2.0.290
% Date:               Sep 29 2024, 11:56
% Table:              Table 6 - Global Evaluation 2
% Iop (A)                hKapton (m)              SensPos (m)              REBCO (K)                Sensor (K)
200                      9.0E-6                   5.0E-4                   6.749914424476195        1.795396054567565
217.5                    9.0E-6                   5.0E-4                   7.337759167222902        1.95321710074181
235                      9.0E-6                   5.0E-4                   7.925528592225209        2.1111474609597316
252.5                    9.0E-6                   5.0E-4                   8.512201739603935        2.2691750331895904
270                      9.0E-6                   5.0E-4                   9.09736988264568         2.4273269525889596
