% Model:              BeamAdsorber_3D+2D__20K_sensorVarCurr_150keV_Apiezon_f20.mph
% Version:            COMSOL 6.2.0.290
% Date:               Sep 29 2024, 11:55
% Table:              Table 3 - Global Evaluation 2
% Iop (A)                hKapton (m)              SensPos (m)              REBCO (K)                Sensor (K)
200                      7.0E-6                   5.0E-4                   5.703119575907934        1.298101338435064
217.5                    7.0E-6                   5.0E-4                   6.199290747370313        1.4120868573168117
235                      7.0E-6                   5.0E-4                   6.69561110191853         1.5261747783636785
252.5                    7.0E-6                   5.0E-4                   7.19195471441709         1.6403452700037988
270                      7.0E-6                   5.0E-4                   7.688259108896393        1.7545885239815817
