% Model:              BeamAdsorber_3D+2D__20K_sensorVarCurr_150keV_Apiezon_f20.mph
% Version:            COMSOL 6.2.0.290
% Date:               Sep 29 2024, 11:56
% Table:              Table 6 - Global Evaluation 2
% Iop (A)                hKapton (m)              SensPos (m)              REBCO (K)                Sensor (K)
200                      9.0E-6                   -5.0E-4                  6.655809296682584        2.6412583051468665
217.5                    9.0E-6                   -5.0E-4                  7.235402474049248        2.8731846015745894
235                      9.0E-6                   -5.0E-4                  7.814934887289713        3.1052119487689964
252.5                    9.0E-6                   -5.0E-4                  8.393672911022957        3.3373161034248575
270                      9.0E-6                   -5.0E-4                  8.97091138306206         3.569468606597386
