% Model:              BeamAdsorber_3D+2D__20K_sensorVarCurr_150keV_Apiezon_f20.mph
% Version:            COMSOL 6.2.0.290
% Date:               Sep 29 2024, 11:55
% Table:              Table 3 - Global Evaluation 2
% Iop (A)                hKapton (m)              SensPos (m)              REBCO (K)                Sensor (K)
200                      7.0E-6                   -5.0E-4                  5.630004923854052        2.0038005448631075
217.5                    7.0E-6                   -5.0E-4                  6.1197704005587          2.1796415414608177
235                      7.0E-6                   -5.0E-4                  6.609647158117912        2.355610638978991
252.5                    7.0E-6                   -5.0E-4                  7.099560889844348        2.531674771775446
270                      7.0E-6                   -5.0E-4                  7.589444521945424        2.707814020840118
