% Model:              BeamAdsorber_3D+2D__20K_sensorVarCurr_150keV_Apiezon_f34.mph
% Version:            COMSOL 6.2.0.290
% Date:               Sep 29 2024, 14:06
% Table:              Table 6 - Global Evaluation 2
% Iop (A)                hKapton (m)              SensPos (m)              REBCO (K)                Sensor (K)
237                      2.9E-5                   0                        16.968434481790453       4.0389037769254585
238                      2.9E-5                   0                        17.039346898890635       4.056101026109186
239                      2.9E-5                   0                        17.110257130121717       4.073296243570461
240                      2.9E-5                   0                        17.18115479244029        4.090495539654473
241                      2.9E-5                   0                        17.252045803742448       4.107694106094225
