% Model:              BeamAdsorber_3D+2D__20K_sensorVarCurr_150keV_Apiezon_f34.mph
% Version:            COMSOL 6.2.0.290
% Date:               Sep 29 2024, 14:06
% Table:              Table 6 - Global Evaluation 2
% Iop (A)                hKapton (m)              SensPos (m)              REBCO (K)                Sensor (K)
237                      2.9E-5                   -5.0E-4                  16.939157279833324       4.512581730814674
238                      2.9E-5                   -5.0E-4                  17.009949522133056       4.531763766481923
239                      2.9E-5                   -5.0E-4                  17.080735785811335       4.550946867792931
240                      2.9E-5                   -5.0E-4                  17.151515080241147       4.570130406872277
241                      2.9E-5                   -5.0E-4                  17.222285728430087       4.589313496836731
