% Model:              BeamAdsorber_3D+2D__20K_sensorVarCurr_150keV_Apiezon_f34.mph
% Version:            COMSOL 6.2.0.290
% Date:               Sep 29 2024, 14:06
% Table:              Table 6 - Global Evaluation 2
% Iop (A)                hKapton (m)              SensPos (m)              REBCO (K)                Sensor (K)
237                      2.9E-5                   5.0E-4                   16.99190329083919        3.614511404872953
238                      2.9E-5                   5.0E-4                   17.062914445651984       3.629927627139157
239                      2.9E-5                   5.0E-4                   17.13391758381122        3.6453450508826712
240                      2.9E-5                   5.0E-4                   17.204914612280128       3.660760876819108
241                      2.9E-5                   5.0E-4                   17.27590181424582        3.6761790576618267
