% Model:              BeamAdsorber_3D+2D__20K_sensorVarCurr_150keV_Apiezon_f34.mph
% Version:            COMSOL 6.2.0.290
% Date:               Sep 29 2024, 14:05
% Table:              Table 6 - Global Evaluation 2
% Iop (A)                hKapton (m)              SensPos (m)              REBCO (K)                Sensor (K)
237                      2.7E-5                   0                        16.25459971458418        3.672570962489825
238                      2.7E-5                   0                        16.32258257761712        3.68822211601028
239                      2.7E-5                   0                        16.3905558464108         3.703874046012313
240                      2.7E-5                   0                        16.458528158092435       3.719526092751728
241                      2.7E-5                   0                        16.526487405818827       3.735178316390108
