% Model:              BeamAdsorber_3D+2D__20K_sensorVarCurr_150keV_Apiezon_f34.mph
% Version:            COMSOL 6.2.0.290
% Date:               Sep 29 2024, 14:07
% Table:              Table 6 - Global Evaluation 2
% Iop (A)                hKapton (m)              SensPos (m)              REBCO (K)                Sensor (K)
237                      3.1E-5                   5.0E-4                   17.68379598079497        3.957998021753614
238                      3.1E-5                   5.0E-4                   17.75765002330339        3.9748656658999657
239                      3.1E-5                   5.0E-4                   17.831491147740977       3.9917347922412
240                      3.1E-5                   5.0E-4                   17.90532894257447        4.008601687096114
241                      3.1E-5                   5.0E-4                   17.979157287052452       4.02547287320035
