% Model:              BeamAdsorber_3D+2D__20K_sensorVarCurr_150keV_Apiezon_f34.mph
% Version:            COMSOL 6.2.0.290
% Date:               Sep 29 2024, 14:05
% Table:              Table 6 - Global Evaluation 2
% Iop (A)                hKapton (m)              SensPos (m)              REBCO (K)                Sensor (K)
237                      2.7E-5                   -5.0E-4                  16.227473719692625       4.120431867417501
238                      2.7E-5                   -5.0E-4                  16.295347911418233       4.137959641978441
239                      2.7E-5                   -5.0E-4                  16.363209414562633       4.155488315023227
240                      2.7E-5                   -5.0E-4                  16.431068119115743       4.173017264984228
241                      2.7E-5                   -5.0E-4                  16.49891736406999        4.190546934692019
