% Model:              BeamAdsorber_3D+2D__20K_sensorVarCurr_150keV_Apiezon_f34.mph
% Version:            COMSOL 6.2.0.290
% Date:               Sep 29 2024, 14:07
% Table:              Table 6 - Global Evaluation 2
% Iop (A)                hKapton (m)              SensPos (m)              REBCO (K)                Sensor (K)
237                      3.1E-5                   -5.0E-4                  17.62715867850683        4.90435385845873
238                      3.1E-5                   -5.0E-4                  17.700777918749168       4.925190486391578
239                      3.1E-5                   -5.0E-4                  17.774389416409683       4.946029345682302
240                      3.1E-5                   -5.0E-4                  17.847990706047852       4.96686644191616
241                      3.1E-5                   -5.0E-4                  17.921587286642996       4.9877045891762215
