% Model:              BeamAdsorber_3D+2D__20K_sensorVarCurr_150keV_Apiezon_f34.mph
% Version:            COMSOL 6.2.0.290
% Date:               Sep 29 2024, 14:05
% Table:              Table 6 - Global Evaluation 2
% Iop (A)                hKapton (m)              SensPos (m)              REBCO (K)                Sensor (K)
237                      2.7E-5                   5.0E-4                   16.276174673636277       3.273066356765959
238                      2.7E-5                   5.0E-4                   16.344246037737413       3.2870296738104123
239                      2.7E-5                   5.0E-4                   16.412311209878325       3.3009927439857414
240                      2.7E-5                   5.0E-4                   16.48036768159058        3.314960693343572
241                      2.7E-5                   5.0E-4                   16.5484163147867         3.328927224655672
