% Model:              BeamAdsorber_3D+2D__20K_sensorVarCurr_150keV_Apiezon_f29-2.mph
% Version:            COMSOL 6.2.0.290
% Date:               Aug 8 2024, 12:49
% Table:              Table 3 - Global Evaluation 2
% Iop (A)                hKapton (m)              SensPos (m)              REBCO (K)                Sensor (K)
43                       1.6E-5                   -5.0E-4                  9.122162023340827        1.5457752440816783
43.5                     1.6E-5                   -5.0E-4                  9.227401706128056        1.5638744164110783
44                       1.6E-5                   -5.0E-4                  9.332608770539839        1.5819774978104952
44.5                     1.6E-5                   -5.0E-4                  9.437782902814636        1.6000846239183595
45                       1.6E-5                   -5.0E-4                  9.542924964362282        1.6181960761079885
