% Model:              BeamAdsorber_3D+2D__20K_sensorVarCurr_150keV_Apiezon_f29-2.mph
% Version:            COMSOL 6.2.0.290
% Date:               Aug 8 2024, 12:50
% Table:              Table 3 - Global Evaluation 2
% Iop (A)                hKapton (m)              SensPos (m)              REBCO (K)                Sensor (K)
43                       1.6E-5                   5.0E-4                   9.14030174099322         1.146926697133651
43.5                     1.6E-5                   5.0E-4                   9.245749455778352        1.1603585048205396
44                       1.6E-5                   5.0E-4                   9.351163810956287        1.1737935771940506
44.5                     1.6E-5                   5.0E-4                   9.45654587823789         1.187231974370654
45                       1.6E-5                   5.0E-4                   9.561898837855551        1.200673266528657
