% Model:              BeamAdsorber_3D+2D__20K_sensorVarCurr_150keV_Apiezon_f29-2.mph
% Version:            COMSOL 6.2.0.290
% Date:               Aug 8 2024, 12:50
% Table:              Table 3 - Global Evaluation 2
% Iop (A)                hKapton (m)              SensPos (m)              REBCO (K)                Sensor (K)
43                       1.8E-5                   -5.0E-4                  9.823033165837302        1.835621101076999
43.5                     1.8E-5                   -5.0E-4                  9.93637355562429         1.8571313087430674
44                       1.8E-5                   -5.0E-4                  10.049723654324268       1.8786452915990495
44.5                     1.8E-5                   -5.0E-4                  10.163081531690679       1.9001637524008217
45                       1.8E-5                   -5.0E-4                  10.27644720567838        1.921685704076964
