% Model:              BeamAdsorber_3D+2D__20K_sensorVarCurr_150keV_Apiezon_f29-2.mph
% Version:            COMSOL 6.2.0.290
% Date:               Aug 8 2024, 12:51
% Table:              Table 3 - Global Evaluation 2
% Iop (A)                hKapton (m)              SensPos (m)              REBCO (K)                Sensor (K)
43                       1.9999999999999998E-5    5.0E-4                   10.514425841276879       1.6304661310609916
43.5                     1.9999999999999998E-5    5.0E-4                   10.635841910946787       1.6495870245591853
44                       1.9999999999999998E-5    5.0E-4                   10.757262928339806       1.668711425085732
44.5                     1.9999999999999998E-5    5.0E-4                   10.878689543774708       1.6878392748101696
45                       1.9999999999999998E-5    5.0E-4                   11.000120434240706       1.7069702432484846
