% Model:              BeamAdsorber_3D+2D__20K_sensorVarCurr_150keV_Apiezon_f29-2.mph
% Version:            COMSOL 6.2.0.290
% Date:               Aug 8 2024, 12:51
% Table:              Table 3 - Global Evaluation 2
% Iop (A)                hKapton (m)              SensPos (m)              REBCO (K)                Sensor (K)
43                       1.9999999999999998E-5    0                        10.503337415259704       1.8638860240200756
43.5                     1.9999999999999998E-5    0                        10.624622371732695       1.8857405038666322
44                       1.9999999999999998E-5    0                        10.745911551932867       1.9075989248816931
44.5                     1.9999999999999998E-5    0                        10.867206662745659       1.9294608797174533
45                       1.9999999999999998E-5    0                        10.988505866111211       1.9513265436423168
