% Model:              BeamAdsorber_3D+2D__20K_sensorVarCurr_150keV_Apiezon_f29-2.mph
% Version:            COMSOL 6.2.0.290
% Date:               Aug 8 2024, 12:50
% Table:              Table 3 - Global Evaluation 2
% Iop (A)                hKapton (m)              SensPos (m)              REBCO (K)                Sensor (K)
43                       1.8E-5                   5.0E-4                   9.84490952666091         1.3847733185477011
43.5                     1.8E-5                   5.0E-4                   9.958508793557133        1.4010056980944725
44                       1.8E-5                   5.0E-4                   10.07211784876625        1.4172415027403424
44.5                     1.8E-5                   5.0E-4                   10.185735943363152       1.4334801759157436
45                       1.8E-5                   5.0E-4                   10.299360216889102       1.4497221396461626
