% Model:              BeamAdsorber_3D+2D__20K_sensorVarCurr_150keV_Apiezon_f29-2.mph
% Version:            COMSOL 6.2.0.290
% Date:               Aug 8 2024, 12:50
% Table:              Table 3 - Global Evaluation 2
% Iop (A)                hKapton (m)              SensPos (m)              REBCO (K)                Sensor (K)
43                       1.6E-5                   0                        9.132586207320319        1.331384832177978
43.5                     1.6E-5                   0                        9.237945143675937        1.3469761184533446
44                       1.6E-5                   0                        9.3432711764804          1.3625707780933318
44.5                     1.6E-5                   0                        9.448564987193514        1.3781688330428103
45                       1.6E-5                   0                        9.553827198361315        1.3937709190304233
