% Model:              BeamAdsorber_3D+2D__20K_sensorVarCurr_150keV_Apiezon_f29-2.mph
% Version:            COMSOL 6.2.0.290
% Date:               Aug 8 2024, 12:51
% Table:              Table 3 - Global Evaluation 2
% Iop (A)                hKapton (m)              SensPos (m)              REBCO (K)                Sensor (K)
43                       1.9999999999999998E-5    -5.0E-4                  10.488826650219945       2.1309006172953637
43.5                     1.9999999999999998E-5    -5.0E-4                  10.609940409822592       2.155879732360205
44                       1.9999999999999998E-5    -5.0E-4                  10.731058708261266       2.1808628606903895
44.5                     1.9999999999999998E-5    -5.0E-4                  10.852181859335268       2.205850332704138
45                       1.9999999999999998E-5    -5.0E-4                  10.973310530188904       2.2308413044024746
