% Model:              BeamAdsorber_3D+2D__20K_sensorVarCurr_150keV_Apiezon_f34.mph
% Version:            COMSOL 6.2.0.290
% Date:               Sep 29 2024, 17:05
% Table:              Table 6 - Global Evaluation 2
% Iop (A)                hKapton (m)              SensPos (m)              REBCO (K)                Sensor (K)
14                       3.7999999999999995E-5    5.0E-4                   15.76158132289698        4.066835413956682
15                       3.7999999999999995E-5    5.0E-4                   16.877025206091737       4.359704588518323
16                       3.7999999999999995E-5    5.0E-4                   17.990550606193167       4.652704067683317
