% Model:              BeamAdsorber_3D+2D__20K_sensorVarCurr_150keV_Apiezon_f34.mph
% Version:            COMSOL 6.2.0.290
% Date:               Sep 29 2024, 17:05
% Table:              Table 6 - Global Evaluation 2
% Iop (A)                hKapton (m)              SensPos (m)              REBCO (K)                Sensor (K)
14                       3.7999999999999995E-5    0                        15.736851412663782       4.480114194510165
15                       3.7999999999999995E-5    0                        16.850576556563688       4.802286164851132
16                       3.7999999999999995E-5    0                        17.96238865552175        5.12460656203298
