% Model:              BeamAdsorber_3D+2D__20K_sensorVarCurr_150keV_Apiezon_f34.mph
% Version:            COMSOL 6.2.0.290
% Date:               Sep 29 2024, 17:06
% Table:              Table 6 - Global Evaluation 2
% Iop (A)                hKapton (m)              SensPos (m)              REBCO (K)                Sensor (K)
14                       4.1E-5                   -5.0E-4                  16.42269865185652        5.391023480317905
15                       4.1E-5                   -5.0E-4                  17.584063560321404       5.777936937061217
16                       4.1E-5                   -5.0E-4                  18.74346203090556        6.165022858825154
