% Model:              BeamAdsorber_3D+2D__20K_sensorVarCurr_150keV_Apiezon_f34.mph
% Version:            COMSOL 6.2.0.290
% Date:               Sep 29 2024, 17:05
% Table:              Table 6 - Global Evaluation 2
% Iop (A)                hKapton (m)              SensPos (m)              REBCO (K)                Sensor (K)
14                       3.5E-5                   -5.0E-4                  14.963190431974112       4.47618219080746
15                       3.5E-5                   -5.0E-4                  16.022756679117414       4.797898392272927
16                       3.5E-5                   -5.0E-4                  17.080919210261804       5.119705024737659
