% Model:              BeamAdsorber_3D+2D__20K_sensorVarCurr_150keV_Apiezon_f34.mph
% Version:            COMSOL 6.2.0.290
% Date:               Sep 29 2024, 17:05
% Table:              Table 6 - Global Evaluation 2
% Iop (A)                hKapton (m)              SensPos (m)              REBCO (K)                Sensor (K)
14                       3.5E-5                   0                        14.991065959070767       4.046347311781346
15                       3.5E-5                   0                        16.052602822064472       4.337599558971242
16                       3.5E-5                   0                        17.112694550755087       4.628933963485153
