% Model:              BeamAdsorber_3D+2D__20K_sensorVarCurr_150keV_Apiezon_f34.mph
% Version:            COMSOL 6.2.0.290
% Date:               Sep 29 2024, 17:05
% Table:              Table 6 - Global Evaluation 2
% Iop (A)                hKapton (m)              SensPos (m)              REBCO (K)                Sensor (K)
14                       3.7999999999999995E-5    -5.0E-4                  15.706850579308913       4.935127638071659
15                       3.7999999999999995E-5    -5.0E-4                  16.818501023626567       5.289555292814917
16                       3.7999999999999995E-5    -5.0E-4                  17.928245486852887       5.6440979789386
