% Model:              BeamAdsorber_3D+2D__20K_sensorVarCurr_150keV_Apiezon_f34.mph
% Version:            COMSOL 6.2.0.290
% Date:               Sep 29 2024, 17:06
% Table:              Table 6 - Global Evaluation 2
% Iop (A)                hKapton (m)              SensPos (m)              REBCO (K)                Sensor (K)
14                       4.1E-5                   5.0E-4                   16.481170173401374       4.476117947419624
15                       4.1E-5                   5.0E-4                   17.646571326811745       4.798202786021093
16                       4.1E-5                   5.0E-4                   18.810045061004082       5.120477373018286
