% Model:              BeamAdsorber_3D+2D__20K_sensorVarCurr_150keV_Apiezon_f29-2.mph
% Version:            COMSOL 6.2.0.290
% Date:               Sep 29 2024, 15:18
% Table:              Table 3 - Global Evaluation 2
% Iop (A)                hKapton (m)              SensPos (m)              REBCO (K)                Sensor (K)
29                       1.6E-5                   0                        9.824528588431821        1.4340335749574145
30                       1.6E-5                   0                        10.160766953631484       1.4838912701542561
31                       1.6E-5                   0                        10.497073668205523       1.5337769639950203
