% Model:              BeamAdsorber_3D+2D__20K_sensorVarCurr_150keV_Apiezon_f29-2.mph
% Version:            COMSOL 6.2.0.290
% Date:               Sep 29 2024, 15:18
% Table:              Table 3 - Global Evaluation 2
% Iop (A)                hKapton (m)              SensPos (m)              REBCO (K)                Sensor (K)
29                       1.6E-5                   5.0E-4                   9.832838165640904        1.2353616437020492
30                       1.6E-5                   5.0E-4                   10.169368815081754       1.2783166455732626
31                       1.6E-5                   5.0E-4                   10.505968100774783       1.3212965197535844
