% Model:              BeamAdsorber_3D+2D__20K_sensorVarCurr_150keV_Apiezon_f29-2.mph
% Version:            COMSOL 6.2.0.290
% Date:               Sep 29 2024, 15:19
% Table:              Table 3 - Global Evaluation 2
% Iop (A)                hKapton (m)              SensPos (m)              REBCO (K)                Sensor (K)
29                       1.8E-5                   5.0E-4                   10.591597531671198       1.4916389179025558
30                       1.8E-5                   5.0E-4                   10.95438504357736        1.5435325321085323
31                       1.8E-5                   5.0E-4                   11.317208168744006       1.5954525076905597
