% Model:              BeamAdsorber_3D+2D__20K_sensorVarCurr_150keV_Apiezon_f29-2.mph
% Version:            COMSOL 6.2.0.290
% Date:               Sep 29 2024, 15:19
% Table:              Table 3 - Global Evaluation 2
% Iop (A)                hKapton (m)              SensPos (m)              REBCO (K)                Sensor (K)
29                       1.8E-5                   -5.0E-4                  10.568016231509493       1.9772277343532636
30                       1.8E-5                   -5.0E-4                  10.929976007146642       2.0459881178271537
31                       1.8E-5                   -5.0E-4                  11.291972660577748       2.114780191202314
