% Model:              BeamAdsorber_3D+2D__20K_sensorVarCurr_150keV_Apiezon_f29-2.mph
% Version:            COMSOL 6.2.0.290
% Date:               Sep 29 2024, 15:18
% Table:              Table 3 - Global Evaluation 2
% Iop (A)                hKapton (m)              SensPos (m)              REBCO (K)                Sensor (K)
29                       1.4E-5                   -5.0E-4                  9.012823884797307        1.3609564646302417
30                       1.4E-5                   -5.0E-4                  9.322466788736907        1.4081976018128444
31                       1.4E-5                   -5.0E-4                  9.630638022464066        1.4554925997805412
