% Model:              BeamAdsorber_3D+2D__20K_sensorVarCurr_800keV_Apiezon_f20.mph
% Version:            COMSOL 6.2.0.290
% Date:               May 22 2024, 16:58
% Table:              Table 3 - Global Evaluation 2
% Iop (A)                hKapton (m)              SensPos (m)              REBCO (K)                Sensor (K)
44.5                     1.3E-5                   0                        8.150688421121735        2.664112223779192
