% Model:              BeamAdsorber_3D+2D__20K_sensorVarCurr_800keV_Apiezon_f20.mph
% Version:            COMSOL 6.2.0.290
% Date:               May 22 2024, 16:59
% Table:              Table 3 - Global Evaluation 2
% Iop (A)                hKapton (m)              SensPos (m)              REBCO (K)                Sensor (K)
44.5                     1.4999999999999999E-5    5.0E-4                   8.968862488056182        2.6928424446035883
