% Model:              BeamAdsorber_3D+2D__20K_sensorVarCurr_150keV_Apiezon_f34.mph
% Version:            COMSOL 6.2.0.290
% Date:               Aug 9 2024, 11:46
% Table:              Table 3 - Global Evaluation 2
% Iop (A)                hKapton (m)              SensPos (m)              REBCO (K)                Sensor (K)
14.5                     1.9999999999999998E-5    -5.0E-4                  10.997327100779145       2.93632081821179
15                       1.9999999999999998E-5    -5.0E-4                  11.374094908102677       3.038344228051322
15.5                     1.9999999999999998E-5    -5.0E-4                  11.750710837569905       3.140401666446248
