% Model:              BeamAdsorber_3D+2D__20K_sensorVarCurr_150keV_Apiezon_f34.mph
% Version:            COMSOL 6.2.0.290
% Date:               Aug 9 2024, 11:47
% Table:              Table 3 - Global Evaluation 2
% Iop (A)                hKapton (m)              SensPos (m)              REBCO (K)                Sensor (K)
14.5                     2.2E-5                   -5.0E-4                  11.661837560372074       3.3071691522293847
15                       2.2E-5                   -5.0E-4                  12.061103293631355       3.4220655127517396
15.5                     2.2E-5                   -5.0E-4                  12.460092837736113       3.536992961886366
