% Model:              BeamAdsorber_3D+2D__20K_sensorVarCurr_150keV_Apiezon_f34.mph
% Version:            COMSOL 6.2.0.290
% Date:               Aug 9 2024, 11:27
% Table:              Table 3 - Global Evaluation 2
% Iop (A)                hKapton (m)              SensPos (m)              REBCO (K)                Sensor (K)
237                      2.4E-5                   5.0E-4                   15.109890900539654       3.5327662168670386
238                      2.4E-5                   5.0E-4                   15.173124653689413       3.547817903816455
239                      2.4E-5                   5.0E-4                   15.236361283794466       3.562866739768168
240                      2.4E-5                   5.0E-4                   15.299593091713689       3.577917803407093
241                      2.4E-5                   5.0E-4                   15.362823220502314       3.5929715105883098
