% Model:              BeamAdsorber_3D+2D__20K_sensorVarCurr_150keV_Apiezon_f34.mph
% Version:            COMSOL 6.2.0.290
% Date:               Aug 9 2024, 11:26
% Table:              Table 3 - Global Evaluation 2
% Iop (A)                hKapton (m)              SensPos (m)              REBCO (K)                Sensor (K)
237                      2.2E-5                   -5.0E-4                  14.264626241986164       4.056047079782676
238                      2.2E-5                   -5.0E-4                  14.324320674958201       4.073281819743617
239                      2.2E-5                   -5.0E-4                  14.384013860996333       4.090516494477566
240                      2.2E-5                   -5.0E-4                  14.443701059505102       4.107753425100245
241                      2.2E-5                   -5.0E-4                  14.503391550128278       4.124989733090192
