% Model:              BeamAdsorber_3D+2D__20K_sensorVarCurr_150keV_Apiezon_f34.mph
% Version:            COMSOL 6.2.0.290
% Date:               Aug 9 2024, 11:25
% Table:              Table 3 - Global Evaluation 2
% Iop (A)                hKapton (m)              SensPos (m)              REBCO (K)                Sensor (K)
237                      1.9999999999999998E-5    0                        13.485997707600838       3.150582778168374
238                      1.9999999999999998E-5    0                        13.54241513305373        3.1640009796320037
239                      1.9999999999999998E-5    0                        13.598836808344949       3.177417252734376
240                      1.9999999999999998E-5    0                        13.655257248093399       3.1908344361494514
241                      1.9999999999999998E-5    0                        13.71167358896922        3.2042545432051313
