% Model:              BeamAdsorber_3D+2D__20K_sensorVarCurr_150keV_Apiezon_f34.mph
% Version:            COMSOL 6.2.0.290
% Date:               Aug 9 2024, 11:25
% Table:              Table 3 - Global Evaluation 2
% Iop (A)                hKapton (m)              SensPos (m)              REBCO (K)                Sensor (K)
237                      1.9999999999999998E-5    5.0E-4                   13.510471734004952       2.755975661139221
238                      1.9999999999999998E-5    5.0E-4                   13.566998123754296       2.767716538910154
239                      1.9999999999999998E-5    5.0E-4                   13.623522298099473       2.7794610498032206
240                      1.9999999999999998E-5    5.0E-4                   13.680043537576736       2.7912065300312534
241                      1.9999999999999998E-5    5.0E-4                   13.736568155153911       2.8029512593973855
