% Model:              BeamAdsorber_3D+2D__20K_sensorVarCurr_150keV_Apiezon_f34.mph
% Version:            COMSOL 6.2.0.290
% Date:               Aug 9 2024, 11:26
% Table:              Table 3 - Global Evaluation 2
% Iop (A)                hKapton (m)              SensPos (m)              REBCO (K)                Sensor (K)
237                      2.4E-5                   -5.0E-4                  15.041175071450184       4.50912295952304
238                      2.4E-5                   -5.0E-4                  15.104122645053174       4.528267016752352
239                      2.4E-5                   -5.0E-4                  15.167069242198778       4.547409823609041
240                      2.4E-5                   -5.0E-4                  15.230015836674006       4.5665506955055015
241                      2.4E-5                   -5.0E-4                  15.292957172838669       4.585693675774429
