% Model:              BeamAdsorber_3D+2D__20K_sensorVarCurr_150keV_Apiezon_f34.mph
% Version:            COMSOL 6.2.0.290
% Date:               Aug 9 2024, 11:25
% Table:              Table 3 - Global Evaluation 2
% Iop (A)                hKapton (m)              SensPos (m)              REBCO (K)                Sensor (K)
237                      1.9999999999999998E-5    -5.0E-4                  13.45403172797647        3.601599651351968
238                      1.9999999999999998E-5    -5.0E-4                  13.510316492301392       3.6169195810454475
239                      1.9999999999999998E-5    -5.0E-4                  13.56660023950203        3.632241475381342
240                      1.9999999999999998E-5    -5.0E-4                  13.622885940397182       3.6475633637472207
241                      1.9999999999999998E-5    -5.0E-4                  13.679170671029368       3.66288448725167
