% Model:              BeamAdsorber_3D+2D__20K_sensorVarCurr_150keV_Apiezon_f34.mph
% Version:            COMSOL 6.2.0.290
% Date:               Aug 9 2024, 11:25
% Table:              Table 3 - Global Evaluation 2
% Iop (A)                hKapton (m)              SensPos (m)              REBCO (K)                Sensor (K)
237                      2.2E-5                   5.0E-4                   14.327395636165846       3.1428119474579823
238                      2.2E-5                   5.0E-4                   14.387351675211796       3.156204920302681
239                      2.2E-5                   5.0E-4                   14.447306338710092       3.1695975700366112
240                      2.2E-5                   5.0E-4                   14.507258365130816       3.182993521530495
241                      2.2E-5                   5.0E-4                   14.567209549044918       3.196388509642322
