% Model:              BeamAdsorber_3D+2D__20K_sensorVarCurr_150keV_Apiezon_f34.mph
% Version:            COMSOL 6.2.0.290
% Date:               Aug 9 2024, 11:26
% Table:              Table 3 - Global Evaluation 2
% Iop (A)                hKapton (m)              SensPos (m)              REBCO (K)                Sensor (K)
237                      2.2E-5                   0                        14.299961115661496       3.570570073364024
238                      2.2E-5                   0                        14.359801434222838       3.5857723745618273
239                      2.2E-5                   0                        14.41964044316785        3.600973424707984
240                      2.2E-5                   0                        14.479479748916752       3.6161737496764417
241                      2.2E-5                   0                        14.539317307214162       3.6313763774703105
