% Model:              BeamAdsorber_3D+2D__20K_sensorVarCurr_150keV_Apiezon_f29-1.mph
% Version:            COMSOL 6.2.0.290
% Date:               Sep 29 2024, 18:09
% Table:              Table 3 - Global Evaluation 2
% Iop (A)                hKapton (m)              SensPos (m)              REBCO (K)                Sensor (K)
49.5                     2.4E-5                   -5.0E-4                  3.183359629025375        0.7324380604653875
265                      2.4E-5                   -5.0E-4                  16.87909027148614        3.9543401719197284
