% Model:              BeamAdsorber_3D+2D__20K_sensorVarCurr_150keV_Apiezon_f29-1.mph
% Version:            COMSOL 6.2.0.290
% Date:               Sep 29 2024, 18:08
% Table:              Table 3 - Global Evaluation 2
% Iop (A)                hKapton (m)              SensPos (m)              REBCO (K)                Sensor (K)
49.5                     2.4E-5                   0                        3.1883417227244486       0.6479276879458951
265                      2.4E-5                   0                        16.905529229236237       3.5000171466427545
