% Model:              BeamAdsorber_3D+2D__20K_sensorVarCurr_150keV_Apiezon_f29-1.mph
% Version:            COMSOL 6.2.0.290
% Date:               Sep 30 2024, 23:15
% Table:              Table 3 - Global Evaluation 2
% Iop (A)                hKapton (m)              SensPos (m)              REBCO (K)                Sensor (K)
49.5                     2.6E-5                   -5.0E-4                  3.343090837698732        0.08134809868180604
265                      2.6E-5                   -5.0E-4                  17.71774580546316        0.4392191301442882
