% Model:              BeamAdsorber_3D+2D__20K_sensorVarCurr_150keV_Apiezon_f29-1.mph
% Version:            COMSOL 6.2.0.290
% Date:               Sep 29 2024, 18:07
% Table:              Table 3 - Global Evaluation 2
% Iop (A)                hKapton (m)              SensPos (m)              REBCO (K)                Sensor (K)
49.5                     1.8999999999999998E-5    5.0E-4                   2.760482405999973        0.40404288754077555
265                      1.8999999999999998E-5    5.0E-4                   14.65464948213215        2.1818653314413794
