% Model:              BeamAdsorber_3D+2D__20K_sensorVarCurr_150keV_Apiezon_f29-1.mph
% Version:            COMSOL 6.2.0.290
% Date:               Sep 29 2024, 18:06
% Table:              Table 3 - Global Evaluation 2
% Iop (A)                hKapton (m)              SensPos (m)              REBCO (K)                Sensor (K)
49.5                     1.4999999999999999E-5    5.0E-4                   2.375364276705131        0.27669910656963737
265                      1.4999999999999999E-5    5.0E-4                   12.625519457088267       1.4932218794266383
