% Model:              BeamAdsorber_3D+2D__20K_sensorVarCurr_150keV_Apiezon_f29-1.mph
% Version:            COMSOL 6.2.0.290
% Date:               Sep 29 2024, 18:06
% Table:              Table 3 - Global Evaluation 2
% Iop (A)                hKapton (m)              SensPos (m)              REBCO (K)                Sensor (K)
49.5                     1.4999999999999999E-5    -5.0E-4                  2.370955646838336        0.3767632064728481
265                      1.4999999999999999E-5    -5.0E-4                  12.601975638515967       2.031356299086518
