% Model:              BeamAdsorber_3D+2D__20K_sensorVarCurr_150keV_Apiezon_f29-1.mph
% Version:            COMSOL 6.2.0.290
% Date:               Sep 29 2024, 18:09
% Table:              Table 3 - Global Evaluation 2
% Iop (A)                hKapton (m)              SensPos (m)              REBCO (K)                Sensor (K)
49.5                     2.4E-5                   5.0E-4                   3.192237029344163        0.5731908409303301
265                      2.4E-5                   5.0E-4                   16.926267539690897       3.097678993292032
