% Model:              BeamAdsorber_3D+2D__20K_sensorVarCurr_150keV_Apiezon_f29-1.mph
% Version:            COMSOL 6.2.0.290
% Date:               Oct 2 2024, 08:59
% Table:              Table 3 - Global Evaluation 2
% Iop (A)                hKapton (m)              SensPos (m)              REBCO (K)                Sensor (K)
49.5                     1.4999999999999999E-5    0                        2.3735005863172134       0.032284744167750645
265                      1.4999999999999999E-5    0                        12.615559722855473       0.1741465747832006
