% Model:              BeamAdsorber_3D+2D__20K_sensorVarCurr_150keV_Apiezon_f29-1.mph
% Version:            COMSOL 6.2.0.290
% Date:               Sep 30 2024, 23:15
% Table:              Table 3 - Global Evaluation 2
% Iop (A)                hKapton (m)              SensPos (m)              REBCO (K)                Sensor (K)
49.5                     2.6E-5                   0                        3.3485699651442573       0.07230789572904186
265                      2.6E-5                   0                        17.746748464293503       0.3906748768648452
