% Model:              BeamAdsorber_3D+2D__20K_sensorVarCurr_150keV_Apiezon_f28.mph
% Version:            COMSOL 6.2.0.290
% Date:               Sep 29 2024, 17:43
% Table:              Table 3 - Global Evaluation 2
% Iop (A)                hKapton (m)              SensPos (m)              REBCO (K)                Sensor (K)
6                        1.8999999999999998E-5    -5.0E-4                  2.276042880100949        0.4395111654148387
100                      1.8999999999999998E-5    -5.0E-4                  37.294018956622615       7.464633783964455
130                      1.8999999999999998E-5    -5.0E-4                  48.378907258155834       9.731771108657952
