% Model:              BeamAdsorber_3D+2D__20K_sensorVarCurr_150keV_Apiezon_f28.mph
% Version:            COMSOL 6.2.0.290
% Date:               Sep 29 2024, 17:43
% Table:              Table 3 - Global Evaluation 2
% Iop (A)                hKapton (m)              SensPos (m)              REBCO (K)                Sensor (K)
6                        2.2E-5                   0                        2.497321661308739        0.4737471679592673
100                      2.2E-5                   0                        40.88485247194713        8.055860987742513
130                      2.2E-5                   0                        53.02630353515735        10.501815452001978
