% Model:              BeamAdsorber_3D+2D__20K_sensorVarCurr_150keV_Apiezon_f28.mph
% Version:            COMSOL 6.2.0.290
% Date:               Sep 29 2024, 17:42
% Table:              Table 3 - Global Evaluation 2
% Iop (A)                hKapton (m)              SensPos (m)              REBCO (K)                Sensor (K)
6                        1.8999999999999998E-5    0                        2.279067372199844        0.3829850581720393
100                      1.8999999999999998E-5    0                        37.34429794669621        6.516125377713053
130                      1.8999999999999998E-5    0                        48.44379430217026        8.500203156485028
