% Model:              BeamAdsorber_3D+2D__20K_sensorVarCurr_150keV_Apiezon_f33.mph
% Version:            COMSOL 6.2.0.290
% Date:               Sep 29 2024, 15:52
% Table:              Table 6 - Global Evaluation 2
% Iop (A)                hKapton (m)              SensPos (m)              REBCO (K)                Sensor (K)
30                       5.0E-7                   0                        0.4928525597049571       0.011752029428350852
33                       5.0E-7                   0                        0.5420308039934518       0.012927240382950345
36                       5.0E-7                   0                        0.5911897764912482       0.014102452793675724
39                       5.0E-7                   0                        0.6403295220683027       0.015277666661802414
42                       5.0E-7                   0                        0.6894500856714529       0.016452881988964663
45                       5.0E-7                   0                        0.7385515122565032       0.017628098776434342
