% Model:              BeamAdsorber_3D+2D__20K_sensorVarCurr_150keV_Apiezon_f33.mph
% Version:            COMSOL 6.2.0.290
% Date:               Sep 29 2024, 15:51
% Table:              Table 6 - Global Evaluation 2
% Iop (A)                hKapton (m)              SensPos (m)              REBCO (K)                Sensor (K)
30                       1.5E-6                   0                        1.1792628319816458       0.015945253869222853
33                       1.5E-6                   0                        1.2970911301324684       0.017540729420705503
36                       1.5E-6                   0                        1.4149161051600139       0.019136345658417042
39                       1.5E-6                   0                        1.5327351621251069       0.020732093446852673
42                       1.5E-6                   0                        1.6505473119412883       0.022327964921032617
45                       1.5E-6                   0                        1.7683520053606685       0.02392395379197154
