% Model:              BeamAdsorber_3D+2D__20K_sensorVarCurr_150keV_Apiezon_f33.mph
% Version:            COMSOL 6.2.0.290
% Date:               Sep 29 2024, 15:51
% Table:              Table 6 - Global Evaluation 2
% Iop (A)                hKapton (m)              SensPos (m)              REBCO (K)                Sensor (K)
30                       1.5E-6                   -5.0E-4                  1.1792574344913476       0.0191005750938551
33                       1.5E-6                   -5.0E-4                  1.2970851897855304       0.02101213241661526
36                       1.5E-6                   -5.0E-4                  1.4149096218061956       0.02292391171600272
39                       1.5E-6                   -5.0E-4                  1.5327281355958          0.024835898384974797
42                       1.5E-6                   -5.0E-4                  1.6505397420455843       0.026748079806271363
45                       1.5E-6                   -5.0E-4                  1.7683438919165013       0.028660445869935103
