% Model:              BeamAdsorber_3D+2D__20K_sensorVarCurr_150keV_Apiezon_f33.mph
% Version:            COMSOL 6.2.0.290
% Date:               Sep 29 2024, 15:51
% Table:              Table 6 - Global Evaluation 2
% Iop (A)                hKapton (m)              SensPos (m)              REBCO (K)                Sensor (K)
30                       1.0E-6                   -5.0E-4                  0.8557019275374067       0.014352766014823715
33                       1.0E-6                   -5.0E-4                  0.9410635622236541       0.01578831103929801
36                       1.0E-6                   -5.0E-4                  1.026455455416773        0.017223909739605858
39                       1.0E-6                   -5.0E-4                  1.1119025463572036       0.018659566106482117
42                       1.0E-6                   -5.0E-4                  1.1973552050435217       0.020095272416497778
45                       1.0E-6                   -5.0E-4                  1.2828078515186156       0.021531025279056593
