% Model:              BeamAdsorber_3D+2D__20K_sensorVarCurr_150keV_Apiezon_f33.mph
% Version:            COMSOL 6.2.0.290
% Date:               Sep 29 2024, 15:52
% Table:              Table 6 - Global Evaluation 2
% Iop (A)                hKapton (m)              SensPos (m)              REBCO (K)                Sensor (K)
30                       5.0E-7                   5.0E-4                   0.4928526940172375       0.01117580089861292
33                       5.0E-7                   5.0E-4                   0.5420309517108102       0.012293386485623614
36                       5.0E-7                   5.0E-4                   0.5911899376109275       0.01341097307157213
39                       5.0E-7                   5.0E-4                   0.6403296965832652       0.014528560657652179
42                       5.0E-7                   5.0E-4                   0.6894502735789168       0.015646149245128527
45                       5.0E-7                   5.0E-4                   0.7385517135536581       0.01676373883529436
