% Model:              BeamAdsorber_3D+2D__20K_sensorVarCurr_150keV_Apiezon_f33.mph
% Version:            COMSOL 6.2.0.290
% Date:               Sep 29 2024, 15:52
% Table:              Table 6 - Global Evaluation 2
% Iop (A)                hKapton (m)              SensPos (m)              REBCO (K)                Sensor (K)
30                       1.0E-6                   5.0E-4                   0.8557035515531339       0.011848741122626905
33                       1.0E-6                   5.0E-4                   0.9410653485634661       0.013033711860622077
36                       1.0E-6                   5.0E-4                   1.0264574069975367       0.014218702221231894
39                       1.0E-6                   5.0E-4                   1.1119046615526464       0.015403713761120486
42                       1.0E-6                   5.0E-4                   1.1973574836937253       0.016588743159971386
45                       1.0E-6                   5.0E-4                   1.2828102935878753       0.017773789021731545
