% Model:              BeamAdsorber_3D+2D__20K_sensorVarCurr_150keV_Apiezon_f33.mph
% Version:            COMSOL 6.2.0.290
% Date:               Sep 29 2024, 15:52
% Table:              Table 6 - Global Evaluation 2
% Iop (A)                hKapton (m)              SensPos (m)              REBCO (K)                Sensor (K)
30                       5.0E-7                   -5.0E-4                  0.49285233077653956      0.012448947116848075
33                       5.0E-7                   -5.0E-4                  0.5420305522158522       0.013693854558376017
36                       5.0E-7                   -5.0E-4                  0.5911895018740303       0.014938764313733088
39                       5.0E-7                   -5.0E-4                  0.6403292246181849       0.016183676384436296
42                       5.0E-7                   -5.0E-4                  0.6894497653948228       0.017428590772542663
45                       5.0E-7                   -5.0E-4                  0.7385511691652411       0.01867350747940577
