% Model:              BeamAdsorber_3D+2D__20K_sensorVarCurr_150keV_Apiezon_f33.mph
% Version:            COMSOL 6.2.0.290
% Date:               Sep 29 2024, 15:51
% Table:              Table 6 - Global Evaluation 2
% Iop (A)                hKapton (m)              SensPos (m)              REBCO (K)                Sensor (K)
30                       1.0E-6                   0                        0.8557030336243017       0.012874620092809153
33                       1.0E-6                   0                        0.9410647788771271       0.01416224152025336
36                       1.0E-6                   0                        1.0264567846496497       0.015449895013109227
39                       1.0E-6                   0                        1.111903987042659        0.01673758300723449
42                       1.0E-6                   0                        1.197356757077248        0.018025300575896352
45                       1.0E-6                   0                        1.2828095148727954       0.019313045598529754
