% Model:              BeamAdsorber_3D+2D__20K_sensorVarCurr_150keV_Apiezon_f29-1.mph
% Version:            COMSOL 6.2.0.290
% Date:               Sep 29 2024, 18:18
% Table:              Table 3 - Global Evaluation 2
% Iop (A)                hKapton (m)              SensPos (m)              REBCO (K)                Sensor (K)
27.5                     2.4E-5                   -5.0E-4                  11.974967427024072       2.788727959225774
31.5                     2.4E-5                   -5.0E-4                  13.701651088537446       3.1981759456893855
