% Model:              BeamAdsorber_3D+2D__20K_sensorVarCurr_150keV_Apiezon_f29-1.mph
% Version:            COMSOL 6.2.0.290
% Date:               Sep 29 2024, 18:17
% Table:              Table 3 - Global Evaluation 2
% Iop (A)                hKapton (m)              SensPos (m)              REBCO (K)                Sensor (K)
27.5                     2.4E-5                   5.0E-4                   12.008408722639231       2.1836238677333135
31.5                     2.4E-5                   5.0E-4                   13.739927997468598       2.504528159124831
