% Model:              BeamAdsorber_3D+2D__20K_sensorVarCurr_150keV_Apiezon_f29-1.mph
% Version:            COMSOL 6.2.0.290
% Date:               Sep 30 2024, 22:56
% Table:              Table 3 - Global Evaluation 2
% Iop (A)                hKapton (m)              SensPos (m)              REBCO (K)                Sensor (K)
27.5                     2.4E-5                   0                        11.993727199923583       2.467656178464214
31.5                     2.4E-5                   0                        13.723119771174979       2.830151441742025
