% Model:              BeamAdsorber_3D+2D__20K_sensorVarCurr_150keV_Apiezon_f29-1.mph
% Version:            COMSOL 6.2.0.290
% Date:               Sep 30 2024, 22:57
% Table:              Table 3 - Global Evaluation 2
% Iop (A)                hKapton (m)              SensPos (m)              REBCO (K)                Sensor (K)
27.5                     2.6E-5                   0                        12.592162574473612       2.754519969115737
31.5                     2.6E-5                   0                        14.407191091630033       3.159226270654891
