% Model:              BeamAdsorber_3D+2D__20K_sensorVarCurr_150keV_Apiezon_f29-1.mph
% Version:            COMSOL 6.2.0.290
% Date:               Sep 29 2024, 18:17
% Table:              Table 3 - Global Evaluation 2
% Iop (A)                hKapton (m)              SensPos (m)              REBCO (K)                Sensor (K)
27.5                     1.8999999999999998E-5    0                        10.382984115834759       1.7646407292716297
31.5                     1.8999999999999998E-5    0                        11.882606154522275       2.023704563581372
