% Model:              BeamAdsorber_3D+2D__20K_sensorVarCurr_150keV_Apiezon_f29-1.mph
% Version:            COMSOL 6.2.0.290
% Date:               Sep 30 2024, 22:57
% Table:              Table 3 - Global Evaluation 2
% Iop (A)                hKapton (m)              SensPos (m)              REBCO (K)                Sensor (K)
27.5                     2.6E-5                   5.0E-4                   12.608452031847854       2.4491484028308363
31.5                     2.6E-5                   5.0E-4                   14.425849001992859       2.8091649713540434
