% Model:              BeamAdsorber_3D+2D__20K_sensorVarCurr_150keV_Apiezon_f29-1.mph
% Version:            COMSOL 6.2.0.290
% Date:               Sep 29 2024, 18:17
% Table:              Table 3 - Global Evaluation 2
% Iop (A)                hKapton (m)              SensPos (m)              REBCO (K)                Sensor (K)
27.5                     1.4999999999999999E-5    5.0E-4                   8.951758996825866        1.0532846068320474
31.5                     1.4999999999999999E-5    5.0E-4                   10.24451713878355        1.2077276748936718
