% Model:              BeamAdsorber_3D+2D__20K_sensorVarCurr_150keV_Apiezon_f20.mph
% Version:            COMSOL 6.2.0.290
% Date:               Aug 9 2024, 11:54
% Table:              Table 3 - Global Evaluation 2
% Iop (A)                hKapton (m)              SensPos (m)              REBCO (K)                Sensor (K)
9                        1.9999999999999998E-5    5.0E-4                   6.874674260446767        1.3900909451915524
10                       1.9999999999999998E-5    5.0E-4                   7.634662075750949        1.5453639087414714
14                       1.9999999999999998E-5    5.0E-4                   10.665163855048409       2.168295120218243
15                       1.9999999999999998E-5    5.0E-4                   11.42188458373358        2.3245102431795495
