% Model:              BeamAdsorber_3D+2D__20K_sensorVarCurr_150keV_Apiezon_f20.mph
% Version:            COMSOL 6.2.0.290
% Date:               Aug 9 2024, 11:54
% Table:              Table 3 - Global Evaluation 2
% Iop (A)                hKapton (m)              SensPos (m)              REBCO (K)                Sensor (K)
9                        1.9999999999999998E-5    0                        6.862243705812126        1.5894593330471025
10                       1.9999999999999998E-5    0                        7.620842882374703        1.7669756307430262
14                       1.9999999999999998E-5    0                        10.64584773410008        2.4790304805374994
15                       1.9999999999999998E-5    0                        11.40117027244181        2.6575594043809367
