% Model:              BeamAdsorber_3D+2D__20K_sensorVarCurr_150keV_Apiezon_f20.mph
% Version:            COMSOL 6.2.0.290
% Date:               Aug 9 2024, 11:54
% Table:              Table 3 - Global Evaluation 2
% Iop (A)                hKapton (m)              SensPos (m)              REBCO (K)                Sensor (K)
9                        1.9999999999999998E-5    -5.0E-4                  6.845982387005893        1.817513636379001
10                       1.9999999999999998E-5    -5.0E-4                  7.602766613521236        2.020459892628786
14                       1.9999999999999998E-5    -5.0E-4                  10.62059375012101        2.8343358753986543
15                       1.9999999999999998E-5    -5.0E-4                  11.374094908102606       3.0383442280513293
