% Model:              BeamAdsorber_3D+2D__20K_sensorVarCurr_150keV_Apiezon_f20.mph
% Version:            COMSOL 6.2.0.290
% Date:               Aug 9 2024, 11:54
% Table:              Table 3 - Global Evaluation 2
% Iop (A)                hKapton (m)              SensPos (m)              REBCO (K)                Sensor (K)
9                        2.2E-5                   0                        7.2785459106744455       1.8011325882407192
10                       2.2E-5                   0                        8.083165849799126        2.002324208890691
14                       2.2E-5                   0                        11.290244542752642       2.8095002773466966
15                       2.2E-5                   0                        12.091045025475388       3.011826300259333
