% Model:              BeamAdsorber_3D+2D__20K_sensorVarCurr_150keV_Apiezon_f20.mph
% Version:            COMSOL 6.2.0.290
% Date:               Aug 9 2024, 11:55
% Table:              Table 3 - Global Evaluation 2
% Iop (A)                hKapton (m)              SensPos (m)              REBCO (K)                Sensor (K)
9                        2.4E-5                   0                        7.677391469948709        2.0134883744535514
10                       2.4E-5                   0                        8.526172183975444        2.2383792732101
14                       2.4E-5                   0                        11.907389188193878       3.1409962730325525
15                       2.4E-5                   0                        12.751241641738304       3.367204842517527
