% Model:              BeamAdsorber_3D+2D__20K_sensorVarCurr_150keV_Apiezon_f20.mph
% Version:            COMSOL 6.2.0.290
% Date:               Aug 9 2024, 11:56
% Table:              Table 3 - Global Evaluation 2
% Iop (A)                hKapton (m)              SensPos (m)              REBCO (K)                Sensor (K)
9                        2.4E-5                   -5.0E-4                  7.657725781089187        2.27589370475604
10                       2.4E-5                   -5.0E-4                  8.504359239606888        2.5300108827278827
14                       2.4E-5                   -5.0E-4                  11.876902066145888       3.5496171346811565
15                       2.4E-5                   -5.0E-4                  12.718638454026639       3.804956705788676
