% Model:              BeamAdsorber_3D+2D__20K_sensorVarCurr_150keV_Apiezon_f34.mph
% Version:            COMSOL 6.2.0.290
% Date:               Sep 29 2024, 17:16
% Table:              Table 6 - Global Evaluation 2
% Iop (A)                hKapton (m)              SensPos (m)              REBCO (K)                Sensor (K)
35                       3.5E-5                   -5.0E-4                  11.99659489348372        3.5756408692277653
38                       3.5E-5                   -5.0E-4                  13.016199685939881       3.8842947977451843
41                       3.5E-5                   -5.0E-4                  14.034396303663655       4.193026611007898
45                       3.5E-5                   -5.0E-4                  15.391415935994395       4.60475153145104
