% Model:              BeamAdsorber_3D+2D__20K_sensorVarCurr_150keV_Apiezon_f34.mph
% Version:            COMSOL 6.2.0.290
% Date:               Sep 29 2024, 17:15
% Table:              Table 6 - Global Evaluation 2
% Iop (A)                hKapton (m)              SensPos (m)              REBCO (K)                Sensor (K)
35                       4.1E-5                   5.0E-4                   13.213799749401147       3.57468548499779
38                       4.1E-5                   5.0E-4                   14.335924108672103       3.883626688759197
41                       4.1E-5                   5.0E-4                   15.45762537954186        4.192641082057314
45                       4.1E-5                   5.0E-4                   16.9515428814127         4.604756977112775
