% Model:              BeamAdsorber_3D+2D__20K_sensorVarCurr_150keV_Apiezon_f34.mph
% Version:            COMSOL 6.2.0.290
% Date:               Sep 29 2024, 17:14
% Table:              Table 6 - Global Evaluation 2
% Iop (A)                hKapton (m)              SensPos (m)              REBCO (K)                Sensor (K)
35                       4.1E-5                   -5.0E-4                  13.166885017538561       4.307936392131733
38                       4.1E-5                   -5.0E-4                  14.285029864789351       4.67914744546372
41                       4.1E-5                   -5.0E-4                  15.402749905261999       5.050439671741238
45                       4.1E-5                   -5.0E-4                  16.891462343205937       5.545577558567569
