% Model:              BeamAdsorber_3D+2D__20K_sensorVarCurr_150keV_Apiezon_f34.mph
% Version:            COMSOL 6.2.0.290
% Date:               Sep 29 2024, 17:15
% Table:              Table 6 - Global Evaluation 2
% Iop (A)                hKapton (m)              SensPos (m)              REBCO (K)                Sensor (K)
35                       3.7999999999999995E-5    5.0E-4                   12.636901845363418       3.2472479511631924
38                       3.7999999999999995E-5    5.0E-4                   13.710167820337709       3.5280367949413964
41                       3.7999999999999995E-5    5.0E-4                   14.782792337474326       3.8090455907671803
45                       3.7999999999999995E-5    5.0E-4                   16.212149723041264       4.183835716212325
