% Model:              BeamAdsorber_3D+2D__20K_sensorVarCurr_150keV_Apiezon_f34.mph
% Version:            COMSOL 6.2.0.290
% Date:               Sep 29 2024, 17:15
% Table:              Table 6 - Global Evaluation 2
% Iop (A)                hKapton (m)              SensPos (m)              REBCO (K)                Sensor (K)
35                       3.7999999999999995E-5    0                        12.617057882246336       3.5783139971119446
38                       3.7999999999999995E-5    0                        13.688664464926838       3.8873868888328857
41                       3.7999999999999995E-5    0                        14.759606343343286       4.1965432275266785
45                       3.7999999999999995E-5    0                        16.18673580526309        4.608823429478278
