% Model:              BeamAdsorber_3D+2D__20K_sensorVarCurr_150keV_Apiezon_f34.mph
% Version:            COMSOL 6.2.0.290
% Date:               Sep 29 2024, 17:15
% Table:              Table 6 - Global Evaluation 2
% Iop (A)                hKapton (m)              SensPos (m)              REBCO (K)                Sensor (K)
35                       3.7999999999999995E-5    -5.0E-4                  12.592988204221896       3.9430132689195183
38                       3.7999999999999995E-5    -5.0E-4                  13.662580501408954       4.283049742579006
41                       3.7999999999999995E-5    -5.0E-4                  14.731477542119286       4.6231573113170725
45                       3.7999999999999995E-5    -5.0E-4                  16.155905376853134       5.076735397221579
