% Model:              BeamAdsorber_3D+2D__20K_sensorVarCurr_150keV_Apiezon_f37_1.mph
% Version:            COMSOL 6.2.0.290
% Date:               Sep 29 2024, 18:57
% Table:              Table 3 - Global Evaluation 2
% Iop (A)                hKapton (m)              SensPos (m)              REBCO (K)                Sensor (K)
43                       9.0E-6                   5.0E-4                   6.2741733092457395       0.4159826303305323
52                       9.0E-6                   5.0E-4                   7.5808590965689575       0.5036834874066116
