% Model:              BeamAdsorber_3D+2D__20K_sensorVarCurr_150keV_Apiezon_f37_1.mph
% Version:            COMSOL 6.2.0.290
% Date:               Sep 29 2024, 18:57
% Table:              Table 3 - Global Evaluation 2
% Iop (A)                hKapton (m)              SensPos (m)              REBCO (K)                Sensor (K)
43                       1.3E-5                   5.0E-4                   7.999886853025092        0.810046582847864
52                       1.3E-5                   5.0E-4                   9.662617849459547        0.9808487817849993
