% Model:              BeamAdsorber_3D+2D__20K_sensorVarCurr_150keV_Apiezon_f37_1.mph
% Version:            COMSOL 6.2.0.290
% Date:               Sep 29 2024, 18:56
% Table:              Table 3 - Global Evaluation 2
% Iop (A)                hKapton (m)              SensPos (m)              REBCO (K)                Sensor (K)
43                       9.0E-6                   -5.0E-4                  6.268284107993292        0.6151011293640813
52                       9.0E-6                   -5.0E-4                  7.573723452948116        0.7446566633441343
