% Model:              BeamAdsorber_3D+2D__20K_sensorVarCurr_150keV_Apiezon_f37_1.mph
% Version:            COMSOL 6.2.0.290
% Date:               Sep 29 2024, 18:58
% Table:              Table 3 - Global Evaluation 2
% Iop (A)                hKapton (m)              SensPos (m)              REBCO (K)                Sensor (K)
43                       1.7E-5                   5.0E-4                   9.497397824327031        1.2647381104554896
52                       1.7E-5                   5.0E-4                   11.470037847995695       1.5319245908978232
