% Model:              BeamAdsorber_3D+2D__20K_sensorVarCurr_150keV_Apiezon_f29-2.mph
% Version:            COMSOL 6.2.0.290
% Date:               Sep 29 2024, 18:31
% Table:              Table 3 - Global Evaluation 2
% Iop (A)                hKapton (m)              SensPos (m)              REBCO (K)                Sensor (K)
41                       1.3E-5                   -5.0E-4                  7.617376405322542        1.0736999859401948
47                       1.3E-5                   -5.0E-4                  8.725518004454766        1.231810317327131
