% Model:              BeamAdsorber_3D+2D__20K_sensorVarCurr_150keV_Apiezon_f29-2.mph
% Version:            COMSOL 6.2.0.290
% Date:               Sep 29 2024, 18:32
% Table:              Table 3 - Global Evaluation 2
% Iop (A)                hKapton (m)              SensPos (m)              REBCO (K)                Sensor (K)
41                       1.7E-5                   5.0E-4                   9.059116505943447        1.205497770210144
47                       1.7E-5                   5.0E-4                   10.37389287799079        1.383383343695332
