% Model:              BeamAdsorber_3D+2D__20K_sensorVarCurr_150keV_Apiezon_f29-2.mph
% Version:            COMSOL 6.2.0.290
% Date:               Sep 29 2024, 18:33
% Table:              Table 3 - Global Evaluation 2
% Iop (A)                hKapton (m)              SensPos (m)              REBCO (K)                Sensor (K)
41                       1.7E-5                   0                        9.050960474267772        1.3933709216649106
47                       1.7E-5                   0                        10.364530176812906       1.598954436710926
