% Model:              BeamAdsorber_3D+2D__20K_sensorVarCurr_150keV_Apiezon_f29-2.mph
% Version:            COMSOL 6.2.0.290
% Date:               Sep 29 2024, 18:32
% Table:              Table 3 - Global Evaluation 2
% Iop (A)                hKapton (m)              SensPos (m)              REBCO (K)                Sensor (K)
41                       1.3E-5                   5.0E-4                   7.62942320713158         0.7721435448437397
47                       1.3E-5                   5.0E-4                   8.739300475697974        0.8859036359482886
