% Model:              BeamAdsorber_3D+2D__20K_sensorVarCurr_150keV_Apiezon_f29-2.mph
% Version:            COMSOL 6.2.0.290
% Date:               Sep 29 2024, 15:09
% Table:              Table 3 - Global Evaluation 2
% Iop (A)                hKapton (m)              SensPos (m)              REBCO (K)                Sensor (K)
40                       1.6E-5                   0                        8.49892106694508         1.2379339625816286
41                       1.6E-5                   0                        8.709928281773013        1.2690799060182307
42                       1.6E-5                   0                        8.92061188843611         1.3002370894550275
43                       1.6E-5                   0                        9.13258620732034         1.331384832177978
44                       1.6E-5                   0                        9.34327117648036         1.3625707780933105
45                       1.6E-5                   0                        9.553827198361272        1.3937709190304268
46                       1.6E-5                   0                        9.764432012294982        1.4249858039369414
