% Model:              BeamAdsorber_3D+2D__20K_sensorVarCurr_150keV_Apiezon_f29-2.mph
% Version:            COMSOL 6.2.0.290
% Date:               Sep 29 2024, 15:08
% Table:              Table 3 - Global Evaluation 2
% Iop (A)                hKapton (m)              SensPos (m)              REBCO (K)                Sensor (K)
40                       1.8E-5                   0                        9.15468390986635         1.4822256398824294
41                       1.8E-5                   0                        9.381688466080487        1.5195472121343627
42                       1.8E-5                   0                        9.608567620320425        1.5568876513982381
43                       1.8E-5                   0                        9.835511587195178        1.5942461957745167
44                       1.8E-5                   0                        10.062497808044238       1.6316202179702053
45                       1.8E-5                   0                        10.289516710454635       1.669008765397983
46                       1.8E-5                   0                        10.516562192295332       1.706410802802722
