% Model:              BeamAdsorber_3D+2D__20K_sensorVarCurr_150keV_Apiezon_f29-2.mph
% Version:            COMSOL 6.2.0.290
% Date:               Sep 29 2024, 15:08
% Table:              Table 3 - Global Evaluation 2
% Iop (A)                hKapton (m)              SensPos (m)              REBCO (K)                Sensor (K)
40                       1.8E-5                   -5.0E-4                  9.143079784602797        1.706662536239655
41                       1.8E-5                   -5.0E-4                  9.369798542893541        1.749628323025508
42                       1.8E-5                   -5.0E-4                  9.596385770000328        1.7926144139279714
43                       1.8E-5                   -5.0E-4                  9.823033165837327        1.8356211010769954
44                       1.8E-5                   -5.0E-4                  10.049723654324247       1.8786452915990566
45                       1.8E-5                   -5.0E-4                  10.276447205678384       1.9216857040769781
46                       1.8E-5                   -5.0E-4                  10.503196360393382       1.9647414080330208
