% Model:              BeamAdsorber_3D+2D__20K_sensorVarCurr_150keV_Apiezon_f29-2.mph
% Version:            COMSOL 6.2.0.290
% Date:               Sep 29 2024, 15:09
% Table:              Table 3 - Global Evaluation 2
% Iop (A)                hKapton (m)              SensPos (m)              REBCO (K)                Sensor (K)
40                       1.6E-5                   -5.0E-4                  8.489215422890798        1.4372883156887468
41                       1.6E-5                   -5.0E-4                  8.69998481422109         1.4734459063079122
42                       1.6E-5                   -5.0E-4                  8.910431453818703        1.5096168153584415
43                       1.6E-5                   -5.0E-4                  9.12216202334081         1.5457752440816748
44                       1.6E-5                   -5.0E-4                  9.332608770539792        1.5819774978105023
45                       1.6E-5                   -5.0E-4                  9.542924964362275        1.6181960761079957
46                       1.6E-5                   -5.0E-4                  9.753278780265418        1.6544311338750575
