% Model:              BeamAdsorber_3D+2D__20K_sensorVarCurr_150keV_Apiezon_f29-2.mph
% Version:            COMSOL 6.2.0.290
% Date:               Sep 29 2024, 15:09
% Table:              Table 3 - Global Evaluation 2
% Iop (A)                hKapton (m)              SensPos (m)              REBCO (K)                Sensor (K)
40                       1.6E-5                   5.0E-4                   8.506104801573628        1.0664194920011845
41                       1.6E-5                   5.0E-4                   8.717288394041326        1.0932508839872845
42                       1.6E-5                   5.0E-4                   8.928146819672058        1.1200923932022206
43                       1.6E-5                   5.0E-4                   9.140301740993198        1.1469266971336545
44                       1.6E-5                   5.0E-4                   9.35116381095634         1.17379357719404
45                       1.6E-5                   5.0E-4                   9.561898837855509        1.2006732665286641
46                       1.6E-5                   5.0E-4                   9.772688387697269        1.2275664063421594
