% Model:              BeamAdsorber_3D+2D__20K_sensorVarCurr_150keV_Apiezon_f29-2.mph
% Version:            COMSOL 6.2.0.290
% Date:               Sep 29 2024, 15:10
% Table:              Table 3 - Global Evaluation 2
% Iop (A)                hKapton (m)              SensPos (m)              REBCO (K)                Sensor (K)
40                       1.4E-5                   0                        7.804013634162082        1.0020319391081003
41                       1.4E-5                   0                        7.998207016878904        1.0272248784980071
42                       1.4E-5                   0                        8.192215654615694        1.0524242371558046
43                       1.4E-5                   0                        8.386090374572081        1.0776323180617062
44                       1.4E-5                   0                        8.579839495944515        1.1028496064996318
45                       1.4E-5                   0                        8.773343884330814        1.1280764910094945
46                       1.4E-5                   0                        8.966760185884635        1.1533122917299607
