% Model:              BeamAdsorber_3D+2D__20K_sensorVarCurr_150keV_Apiezon_f29-2.mph
% Version:            COMSOL 6.2.0.290
% Date:               Sep 29 2024, 15:10
% Table:              Table 3 - Global Evaluation 2
% Iop (A)                hKapton (m)              SensPos (m)              REBCO (K)                Sensor (K)
40                       1.4E-5                   -5.0E-4                  7.796212304711606        1.1749983240566806
41                       1.4E-5                   -5.0E-4                  7.990214840519069        1.2045402255931386
42                       1.4E-5                   -5.0E-4                  8.184032701281978        1.2340894160144416
43                       1.4E-5                   -5.0E-4                  8.377716109558403        1.2636483272192933
44                       1.4E-5                   -5.0E-4                  8.571273863243718        1.2932173067438342
45                       1.4E-5                   -5.0E-4                  8.764619271439578        1.3227969366507217
46                       1.4E-5                   -5.0E-4                  8.957813772599685        1.352386826889152
