% Model:              BeamAdsorber_3D+2D__20K_sensorVarCurr_150keV_Apiezon_f29-2.mph
% Version:            COMSOL 6.2.0.290
% Date:               Sep 29 2024, 15:08
% Table:              Table 3 - Global Evaluation 2
% Iop (A)                hKapton (m)              SensPos (m)              REBCO (K)                Sensor (K)
40                       1.8E-5                   5.0E-4                   9.163422169254968        1.2874600077256773
41                       1.8E-5                   5.0E-4                   9.390641679883274        1.319881162497591
42                       1.8E-5                   5.0E-4                   9.617741969526314        1.3523191163464041
43                       1.8E-5                   5.0E-4                   9.844909526660913        1.3847733185477153
44                       1.8E-5                   5.0E-4                   10.072117848766283       1.417241502740346
45                       1.8E-5                   5.0E-4                   10.299360216889106       1.4497221396461626
46                       1.8E-5                   5.0E-4                   10.526628981280151       1.4822149603356287
