% Model:              BeamAdsorber_3D+2D__20K_sensorVarCurr_150keV_Apiezon_f29-2.mph
% Version:            COMSOL 6.2.0.290
% Date:               Sep 29 2024, 15:10
% Table:              Table 3 - Global Evaluation 2
% Iop (A)                hKapton (m)              SensPos (m)              REBCO (K)                Sensor (K)
40                       1.4E-5                   5.0E-4                   7.809667833665596        0.8547331388822066
41                       1.4E-5                   5.0E-4                   8.003999789356264        0.8762295436505738
42                       1.4E-5                   5.0E-4                   8.198147010307423        0.8977299008441726
43                       1.4E-5                   5.0E-4                   8.39216095134151         0.9192361799594018
44                       1.4E-5                   5.0E-4                   8.586048945634278        0.9407492466509488
45                       1.4E-5                   5.0E-4                   8.779680610097575        0.9622694267292928
46                       1.4E-5                   5.0E-4                   8.973246965014301        0.9837969105416562
