% Model:              BeamAdsorber_3D+2D__20K_sensorVarCurr_150keV_Apiezon_f33.mph
% Version:            COMSOL 6.2.0.290
% Date:               Sep 29 2024, 15:21
% Table:              Table 6 - Global Evaluation 2
% Iop (A)                hKapton (m)              SensPos (m)              REBCO (K)                Sensor (K)
10                       1.5E-6                   5.0E-4                   1.221472995982296        0.014448992926666904
11                       1.5E-6                   5.0E-4                   1.343531675343229        0.01589455446338306
12                       1.5E-6                   5.0E-4                   1.465586512204581        0.01734021053100321
13                       1.5E-6                   5.0E-4                   1.5876355998499072       0.01878595514295256
14                       1.5E-6                   5.0E-4                   1.7096783896937708       0.02023178341963927
15                       1.5E-6                   5.0E-4                   1.831714180114151        0.02167769100523742
