% Model:              BeamAdsorber_3D+2D__20K_sensorVarCurr_150keV_Apiezon_f33.mph
% Version:            COMSOL 6.2.0.290
% Date:               Sep 29 2024, 15:22
% Table:              Table 6 - Global Evaluation 2
% Iop (A)                hKapton (m)              SensPos (m)              REBCO (K)                Sensor (K)
10                       1.0E-6                   -5.0E-4                  0.8841017914179972       0.014991381392810865
11                       1.0E-6                   -5.0E-4                  0.9723319436689515       0.016490832200418026
12                       1.0E-6                   -5.0E-4                  1.06062640305894         0.017990346852435835
13                       1.0E-6                   -5.0E-4                  1.1489362179738727       0.01948991968835756
14                       1.0E-6                   -5.0E-4                  1.2372484535699613       0.020989545502875018
15                       1.0E-6                   -5.0E-4                  1.3255597376666444       0.022489221273872317
