% Model:              BeamAdsorber_3D+2D__20K_sensorVarCurr_150keV_Apiezon_f33.mph
% Version:            COMSOL 6.2.0.290
% Date:               Sep 29 2024, 15:22
% Table:              Table 6 - Global Evaluation 2
% Iop (A)                hKapton (m)              SensPos (m)              REBCO (K)                Sensor (K)
10                       1.5E-6                   -5.0E-4                  1.221464900209238        0.01992851782726035
11                       1.5E-6                   -5.0E-4                  1.3435227655350062       0.021923017685278268
12                       1.5E-6                   -5.0E-4                  1.4655767880015844       0.023917752981510887
13                       1.5E-6                   -5.0E-4                  1.5876250609159577       0.02591270846813387
14                       1.5E-6                   -5.0E-4                  1.7096670358709147       0.02790787162735242
15                       1.5E-6                   -5.0E-4                  1.8317020110203046       0.0299032312676637
