% Model:              BeamAdsorber_3D+2D__20K_sensorVarCurr_150keV_Apiezon_f33.mph
% Version:            COMSOL 6.2.0.290
% Date:               Sep 29 2024, 15:23
% Table:              Table 6 - Global Evaluation 2
% Iop (A)                hKapton (m)              SensPos (m)              REBCO (K)                Sensor (K)
10                       5.0E-7                   5.0E-4                   0.5057066120973595       0.011686462337454628
11                       5.0E-7                   5.0E-4                   0.5561872834257748       0.012855115865114897
12                       5.0E-7                   5.0E-4                   0.6066517473795585       0.014023770717049189
13                       5.0E-7                   5.0E-4                   0.657100041327709        0.015192426894095945
14                       5.0E-7                   5.0E-4                   0.7075322027295954       0.01636108439717532
15                       5.0E-7                   5.0E-4                   0.757948268979785        0.017529743227697736
