% Model:              BeamAdsorber_3D+2D__20K_sensorVarCurr_150keV_Apiezon_f33.mph
% Version:            COMSOL 6.2.0.290
% Date:               Sep 29 2024, 15:22
% Table:              Table 6 - Global Evaluation 2
% Iop (A)                hKapton (m)              SensPos (m)              REBCO (K)                Sensor (K)
10                       1.0E-6                   5.0E-4                   0.8841034794160016       0.012385560133346019
11                       1.0E-6                   5.0E-4                   0.9723338008639324       0.013624228685404915
12                       1.0E-6                   5.0E-4                   1.0606284314726935       0.01486292062382688
13                       1.0E-6                   5.0E-4                   1.148938416274781        0.01610163346435911
14                       1.0E-6                   5.0E-4                   1.237250821687251        0.017340365041594197
15                       1.0E-6                   5.0E-4                   1.3255622756035983       0.01857911416023228
