% Model:              BeamAdsorber_3D+2D__20K_sensorVarCurr_150keV_Apiezon_f33.mph
% Version:            COMSOL 6.2.0.290
% Date:               Sep 29 2024, 15:23
% Table:              Table 6 - Global Evaluation 2
% Iop (A)                hKapton (m)              SensPos (m)              REBCO (K)                Sensor (K)
10                       5.0E-7                   -5.0E-4                  0.5057062345381418       0.013014002504228017
11                       5.0E-7                   -5.0E-4                  0.5561868681663285       0.014315419294145926
12                       5.0E-7                   -5.0E-4                  0.6066512944286373       0.015616839087812195
13                       5.0E-7                   -5.0E-4                  0.6570995506942445       0.016918261886274877
14                       5.0E-7                   -5.0E-4                  0.7075316744259688       0.018219687690706365
15                       5.0E-7                   -5.0E-4                  0.7579477030155957       0.019521116503426583
