% Model:              BeamAdsorber_3D+2D__20K_sensorVarCurr_150keV_Apiezon_f33.mph
% Version:            COMSOL 6.2.0.290
% Date:               Sep 29 2024, 15:22
% Table:              Table 6 - Global Evaluation 2
% Iop (A)                hKapton (m)              SensPos (m)              REBCO (K)                Sensor (K)
10                       1.0E-6                   0                        0.8841029409174439       0.013453700517931821
11                       1.0E-6                   0                        0.972333208479764        0.014799256158561036
12                       1.0E-6                   0                        1.0606277844235663       0.01614484994826526
13                       1.0E-6                   0                        1.148937715054732        0.017490478241271035
14                       1.0E-6                   0                        1.237250066311823        0.018836137766690797
15                       1.0E-6                   0                        1.3255614660780388       0.020181826668437708
