% Model:              BeamAdsorber_3D+2D__20K_sensorVarCurr_150keV_Apiezon_f33.mph
% Version:            COMSOL 6.2.0.290
% Date:               Sep 29 2024, 15:23
% Table:              Table 6 - Global Evaluation 2
% Iop (A)                hKapton (m)              SensPos (m)              REBCO (K)                Sensor (K)
10                       5.0E-7                   0                        0.5057064723209876       0.01228766705857609
11                       5.0E-7                   0                        0.5561871296924465       0.01351644425641041
12                       5.0E-7                   0                        0.606651579692155        0.0147452233593377
13                       5.0E-7                   0                        0.657099859690117        0.015974004368512595
14                       5.0E-7                   0                        0.7075320071460744       0.017202787284769983
15                       5.0E-7                   0                        0.7579480594519481       0.01843157211005675
