% Model:              BeamAdsorber_3D+2D__20K_sensorVarCurr_150keV_Apiezon_f33.mph
% Version:            COMSOL 6.2.0.290
% Date:               Sep 29 2024, 15:22
% Table:              Table 6 - Global Evaluation 2
% Iop (A)                hKapton (m)              SensPos (m)              REBCO (K)                Sensor (K)
10                       1.5E-6                   0                        1.2214705127948307       0.01664664168803398
11                       1.5E-6                   0                        1.3435289425197041       0.018312349358104996
12                       1.5E-6                   0                        1.465583529633168        0.019978206254524622
13                       1.5E-6                   0                        1.5876323674405342       0.0216442028640067
14                       1.5E-6                   0                        1.7096749074014461       0.023310331402608853
15                       1.5E-6                   0                        1.8317104478229602       0.024976584910664457
