% Model:              BeamAdsorber_3D+2D__20K_sensorVarCurr_150keV_Apiezon_f37_1.mph
% Version:            COMSOL 6.2.0.290
% Date:               Sep 30 2024, 21:50
% Table:              Table 3 - Global Evaluation 2
% Iop (A)                hKapton (m)              SensPos (m)              REBCO (K)                Sensor (K)
28                       8.0E-6                   0                        6.017782723282412        0.042331368910420153
211                      8.0E-6                   0                        44.72172271552144        0.32786109473206224
