% Model:              BeamAdsorber_3D+2D__20K_sensorVarCurr_150keV_Apiezon_f37_1.mph
% Version:            COMSOL 6.2.0.290
% Date:               Sep 30 2024, 21:50
% Table:              Table 3 - Global Evaluation 2
% Iop (A)                hKapton (m)              SensPos (m)              REBCO (K)                Sensor (K)
28                       8.0E-6                   -5.0E-4                  6.014984548520111        0.05204310993635772
211                      8.0E-6                   -5.0E-4                  44.69997136514668        0.4026622814182417
