% Model:              BeamAdsorber_3D+2D__20K_sensorVarCurr_150keV_Apiezon_f37_1.mph
% Version:            COMSOL 6.2.0.290
% Date:               Sep 30 2024, 21:52
% Table:              Table 3 - Global Evaluation 2
% Iop (A)                hKapton (m)              SensPos (m)              REBCO (K)                Sensor (K)
28                       1.4E-5                   5.0E-4                   8.719490565810773        0.09556695089010354
211                      1.4E-5                   5.0E-4                   64.7052533838547         0.7416941830764106
