% Model:              BeamAdsorber_3D+2D__20K_sensorVarCurr_150keV_Apiezon_f37_1.mph
% Version:            COMSOL 6.2.0.290
% Date:               Sep 29 2024, 19:06
% Table:              Table 3 - Global Evaluation 2
% Iop (A)                hKapton (m)              SensPos (m)              REBCO (K)                Sensor (K)
28                       1.7E-5                   -5.0E-4                  9.846727818088993        1.7569627067818487
211                      1.7E-5                   -5.0E-4                  73.06395689349613        13.543551642453153
