% Model:              BeamAdsorber_3D+2D__20K_sensorVarCurr_150keV_Apiezon_f37_1.mph
% Version:            COMSOL 6.2.0.290
% Date:               Sep 30 2024, 21:52
% Table:              Table 3 - Global Evaluation 2
% Iop (A)                hKapton (m)              SensPos (m)              REBCO (K)                Sensor (K)
28                       1.4E-5                   0                        8.713184264614238        0.11203393041980583
211                      1.4E-5                   0                        64.6565185138873         0.867820167436291
