% Model:              BeamAdsorber_3D+2D__20K_sensorVarCurr_150keV_Apiezon_f37_1.mph
% Version:            COMSOL 6.2.0.290
% Date:               Sep 30 2024, 21:51
% Table:              Table 3 - Global Evaluation 2
% Iop (A)                hKapton (m)              SensPos (m)              REBCO (K)                Sensor (K)
28                       8.0E-6                   5.0E-4                   6.0196125706618915       0.034473200761648926
211                      8.0E-6                   5.0E-4                   44.73601735709164        0.271900302839866
