% Model:              BeamAdsorber_3D+2D__20K_sensorVarCurr_150keV_Apiezon_f37_1.mph
% Version:            COMSOL 6.2.0.290
% Date:               Sep 29 2024, 19:06
% Table:              Table 3 - Global Evaluation 2
% Iop (A)                hKapton (m)              SensPos (m)              REBCO (K)                Sensor (K)
28                       1.3E-5                   -5.0E-4                  8.299052898522394        1.1709867483403968
211                      1.3E-5                   -5.0E-4                  61.57857804394784        9.055003803335065
