% Model:              BeamAdsorber_3D+2D__20K_sensorVarCurr_150keV_Apiezon_f37_1.mph
% Version:            COMSOL 6.2.0.290
% Date:               Sep 29 2024, 19:04
% Table:              Table 3 - Global Evaluation 2
% Iop (A)                hKapton (m)              SensPos (m)              REBCO (K)                Sensor (K)
28                       9.0E-6                   5.0E-4                   6.518895224030754        0.4324588514433678
211                      9.0E-6                   5.0E-4                   48.42222928127131        3.3554552272704896
