% Model:              BeamAdsorber_3D+2D__20K_sensorVarCurr_150keV_Apiezon_f37_1.mph
% Version:            COMSOL 6.2.0.290
% Date:               Sep 29 2024, 19:03
% Table:              Table 3 - Global Evaluation 2
% Iop (A)                hKapton (m)              SensPos (m)              REBCO (K)                Sensor (K)
28                       9.0E-6                   -5.0E-4                  6.51277165154179         0.6394430840942462
211                      9.0E-6                   -5.0E-4                  48.37479830628381        4.949180710423317
