% Model:              BeamAdsorber_3D+2D__20K_sensorVarCurr_150keV_Apiezon_f34.mph
% Version:            COMSOL 6.2.0.290
% Date:               Sep 29 2024, 14:33
% Table:              Table 6 - Global Evaluation 2
% Iop (A)                hKapton (m)              SensPos (m)              REBCO (K)                Sensor (K)
14                       2.9E-5                   -5.0E-4                  13.377957200082136       3.55132016411293
15                       2.9E-5                   -5.0E-4                  14.325067489851342       3.807155237968882
16                       2.9E-5                   -5.0E-4                  15.27191319935838        4.063055233075914
