% Model:              BeamAdsorber_3D+2D__20K_sensorVarCurr_150keV_Apiezon_f34.mph
% Version:            COMSOL 6.2.0.290
% Date:               Sep 29 2024, 14:33
% Table:              Table 6 - Global Evaluation 2
% Iop (A)                hKapton (m)              SensPos (m)              REBCO (K)                Sensor (K)
14                       3.1E-5                   0                        13.947215062827858       3.4668375050655094
15                       3.1E-5                   0                        14.934767142562492       3.7167798191975585
16                       3.1E-5                   0                        15.921950374970137       3.96680783476814
