% Model:              BeamAdsorber_3D+2D__20K_sensorVarCurr_150keV_Apiezon_f34.mph
% Version:            COMSOL 6.2.0.290
% Date:               Sep 29 2024, 14:35
% Table:              Table 6 - Global Evaluation 2
% Iop (A)                hKapton (m)              SensPos (m)              REBCO (K)                Sensor (K)
14                       2.7E-5                   0                        12.836544489835767       2.8889679679036604
15                       2.7E-5                   0                        13.74535735092234        3.0972984193456767
16                       2.7E-5                   0                        14.653795271410125       3.30585863118036
