% Model:              BeamAdsorber_3D+2D__20K_sensorVarCurr_150keV_Apiezon_f33.mph
% Version:            COMSOL 6.2.0.290
% Date:               Sep 29 2024, 19:29
% Table:              Table 6 - Global Evaluation 2
% Iop (A)                hKapton (m)              SensPos (m)              REBCO (K)                Sensor (K)
10.9                     1.3E-6                   5.0E-4                   1.1885525462274806       0.014620562096119727
14                       1.3E-6                   5.0E-4                   1.5263221530601854       0.018780073176788648
