% Model:              BeamAdsorber_3D+2D__20K_sensorVarCurr_150keV_Apiezon_f33.mph
% Version:            COMSOL 6.2.0.290
% Date:               Sep 29 2024, 19:29
% Table:              Table 6 - Global Evaluation 2
% Iop (A)                hKapton (m)              SensPos (m)              REBCO (K)                Sensor (K)
10.9                     8.0E-7                   5.0E-4                   0.8050325652303307       0.013066230458896655
14                       8.0E-7                   5.0E-4                   1.0334986178071368       0.016782483428031014
