% Model:              BeamAdsorber_3D+2D__20K_sensorVarCurr_150keV_Apiezon_f33.mph
% Version:            COMSOL 6.2.0.290
% Date:               Sep 29 2024, 19:30
% Table:              Table 6 - Global Evaluation 2
% Iop (A)                hKapton (m)              SensPos (m)              REBCO (K)                Sensor (K)
10.9                     1.3E-6                   -5.0E-4                  1.1885476788580434       0.019123407402485526
14                       1.3E-6                   -5.0E-4                  1.5263158938653234       0.02456575576463038
