% Model:              BeamAdsorber_3D+2D__20K_sensorVarCurr_150keV_Apiezon_f33.mph
% Version:            COMSOL 6.2.0.290
% Date:               Sep 29 2024, 19:30
% Table:              Table 6 - Global Evaluation 2
% Iop (A)                hKapton (m)              SensPos (m)              REBCO (K)                Sensor (K)
10.9                     1.8E-6                   5.0E-4                   1.536245821513539        0.01810974279717925
14                       1.8E-6                   5.0E-4                   1.972832841923907        0.023265092956449962
