% Model:              BeamAdsorber_3D+2D__20K_sensorVarCurr_150keV_Apiezon_f33.mph
% Version:            COMSOL 6.2.0.290
% Date:               Sep 29 2024, 19:30
% Table:              Table 6 - Global Evaluation 2
% Iop (A)                hKapton (m)              SensPos (m)              REBCO (K)                Sensor (K)
10.9                     1.3E-6                   0                        1.1885510477133039       0.016430013474266758
14                       1.3E-6                   0                        1.5263202261694353       0.021104977433086702
