% Model:              BeamAdsorber_3D+2D__20K_sensorVarCurr_150keV_Apiezon_f33.mph
% Version:            COMSOL 6.2.0.290
% Date:               Sep 29 2024, 19:29
% Table:              Table 6 - Global Evaluation 2
% Iop (A)                hKapton (m)              SensPos (m)              REBCO (K)                Sensor (K)
10.9                     8.0E-7                   -5.0E-4                  0.8050316057959641       0.01515626349423016
14                       8.0E-7                   -5.0E-4                  1.0334973839952895       0.0194672309226398
