% Model:              BeamAdsorber_3D+2D__20K_sensorVarCurr_150keV_Apiezon_f37_1.mph
% Version:            COMSOL 6.2.0.290
% Date:               Sep 29 2024, 17:36
% Table:              Table 3 - Global Evaluation 2
% Iop (A)                hKapton (m)              SensPos (m)              REBCO (K)                Sensor (K)
28                       1.4999999999999999E-5    -5.0E-4                  9.096296766827265        1.459246065769392
100                      1.4999999999999999E-5    -5.0E-4                  32.15058392028038        5.289758078408795
211                      1.4999999999999999E-5    -5.0E-4                  67.50428603215899        11.267483658754898
