% Model:              BeamAdsorber_3D+2D__20K_sensorVarCurr_150keV_Apiezon_f37_1.mph
% Version:            COMSOL 6.2.0.290
% Date:               Sep 29 2024, 17:36
% Table:              Table 3 - Global Evaluation 2
% Iop (A)                hKapton (m)              SensPos (m)              REBCO (K)                Sensor (K)
28                       1.4999999999999999E-5    5.0E-4                   9.113208464889691        1.072567980911014
100                      1.4999999999999999E-5    5.0E-4                   32.21158377818783        3.895679719682267
211                      1.4999999999999999E-5    5.0E-4                   67.6341450537952         8.320909890189569
