% Model:              BeamAdsorber_3D+2D__20K_sensorVarCurr_150keV_Apiezon_f37_1.mph
% Version:            COMSOL 6.2.0.290
% Date:               Sep 29 2024, 17:36
% Table:              Table 3 - Global Evaluation 2
% Iop (A)                hKapton (m)              SensPos (m)              REBCO (K)                Sensor (K)
28                       9.999999999999999E-6     -5.0E-4                  6.987530795245977        0.7649879242342408
100                      9.999999999999999E-6     -5.0E-4                  24.731266953516133       2.7698501542270115
211                      9.999999999999999E-6     -5.0E-4                  51.87456573930619        5.920763868371672
