% Model:              BeamAdsorber_3D+2D__20K_sensorVarCurr_150keV_Apiezon_f37_1.mph
% Version:            COMSOL 6.2.0.290
% Date:               Sep 29 2024, 17:35
% Table:              Table 3 - Global Evaluation 2
% Iop (A)                hKapton (m)              SensPos (m)              REBCO (K)                Sensor (K)
28                       9.999999999999999E-6     5.0E-4                   6.995278509747539        0.5268973553454259
100                      9.999999999999999E-6     5.0E-4                   24.759303302337578       1.9092469344182668
211                      9.999999999999999E-6     5.0E-4                   51.93448574605431        4.090973847033375
