% Model:              BeamAdsorber_3D+2D__20K_sensorVarCurr_150keV_Apiezon_f37_1.mph
% Version:            COMSOL 6.2.0.290
% Date:               Sep 29 2024, 17:35
% Table:              Table 3 - Global Evaluation 2
% Iop (A)                hKapton (m)              SensPos (m)              REBCO (K)                Sensor (K)
28                       4.9999999999999996E-6    5.0E-4                   4.339265322913764        0.13299178547764612
100                      4.9999999999999996E-6    5.0E-4                   15.391385231372887       0.4798418169353518
211                      4.9999999999999996E-6    5.0E-4                   32.28960709056169        1.0246352772731484
