% Model:              BeamAdsorber_3D+2D__20K_sensorVarCurr_150keV_Apiezon_f37_1.mph
% Version:            COMSOL 6.2.0.290
% Date:               Sep 29 2024, 17:36
% Table:              Table 3 - Global Evaluation 2
% Iop (A)                hKapton (m)              SensPos (m)              REBCO (K)                Sensor (K)
28                       9.999999999999999E-6     0                        6.992131932730935        0.6346947259566846
100                      9.999999999999999E-6     0                        24.747905542136166       2.299003562300882
211                      9.999999999999999E-6     0                        51.910065985474645       4.9210957314254
