% Model:              BeamAdsorber_3D+2D__20K_sensorVarCurr_2400keV_Apiezon_f20.mph
% Version:            COMSOL 6.2.0.290
% Date:               May 22 2024, 17:01
% Table:              Table 3 - Global Evaluation 2
% Iop (A)                hKapton (m)              SensPos (m)              REBCO (K)                Sensor (K)
15.5                     1.3E-5                   5.0E-4                   8.902485815260082        2.460034033319584
17                       1.3E-5                   5.0E-4                   9.758210569332782        2.6995843426484356
