% Model:              BeamAdsorber_3D+2D__20K_sensorVarCurr_2400keV_Apiezon_f20.mph
% Version:            COMSOL 6.2.0.290
% Date:               May 22 2024, 17:02
% Table:              Table 3 - Global Evaluation 2
% Iop (A)                hKapton (m)              SensPos (m)              REBCO (K)                Sensor (K)
15.5                     1.4999999999999999E-5    5.0E-4                   9.750854984854605        2.9322199183995004
17                       1.4999999999999999E-5    5.0E-4                   10.687493986559705       3.2179440829460653
