% Model:              BeamAdsorber_3D+2D__20K_sensorVarCurr_2400keV_Apiezon_f20.mph
% Version:            COMSOL 6.2.0.290
% Date:               May 22 2024, 17:02
% Table:              Table 3 - Global Evaluation 2
% Iop (A)                hKapton (m)              SensPos (m)              REBCO (K)                Sensor (K)
15.5                     1.4999999999999999E-5    -5.0E-4                  9.63960902809729         3.9805883041867247
17                       1.4999999999999999E-5    -5.0E-4                  10.565509192254307       4.367126148705214
